                         Program Version 4.2.0 -  RELEASE  -
|  1> #
|  2> # 048 M06-D3/Def2-TZVPPD
|  3> #
|  4> ! m06 d3zero def2-tzvppd def2/jk grid4 nofinalgrid
|  5>
|  6> *xyz 0 1
|  7> O          0.75742       -0.00510        0.75514
|  8> H         -1.01794        1.02757        1.02184
|  9> H         -0.96093       -0.60735        1.74144
| 10> C         -0.64191        0.00049        0.87802
| 11> H          0.38038        0.00572       -2.17342
| 12> H          0.12624       -0.00672       -2.88156
| 13> Al         2.47079       -0.00043        0.68709
| 14> H         -1.11404       -0.41418       -0.02857
| 15> *
| 16>
| 17> %maxcore 5000
| 18>
| 19> %pal
| 20> nprocs = 24
| 21> end
| 22>
| 23>
| 24>                          ****END OF INPUT****

CARTESIAN COORDINATES (ANGSTROEM)
---------------------------------
  O      0.757420   -0.005100    0.755140
  H     -1.017940    1.027570    1.021840
  H     -0.960930   -0.607350    1.741440
  C     -0.641910    0.000490    0.878020
  H      0.380380    0.005720   -2.173420
  H      0.126240   -0.006720   -2.881560
  Al     2.470790   -0.000430    0.687090
  H     -1.114040   -0.414180   -0.028570

 Total Charge           Charge          ....    0
 Multiplicity           Mult            ....    1
 Number of Electrons    NEL             ....   32
 Basis Dimension        Dim             ....  210

ORBITAL ENERGIES
----------------

  NO   OCC          E(Eh)            E(eV)
   0   2.0000     -56.157218     -1528.1156
   1   2.0000     -19.192150      -522.2450
   2   2.0000     -10.280008      -279.7332
   3   2.0000      -4.200425      -114.2994
   4   2.0000      -2.720913       -74.0398
   5   2.0000      -2.720909       -74.0397
   6   2.0000      -2.716418       -73.9175
   7   2.0000      -1.004088       -27.3226
   8   2.0000      -0.681536       -18.5455
   9   2.0000      -0.488024       -13.2798
  10   2.0000      -0.451918       -12.2973
  11   2.0000      -0.448497       -12.2042
  12   2.0000      -0.431616       -11.7449
  13   2.0000      -0.298088        -8.1114
  14   2.0000      -0.297683        -8.1004
  15   2.0000      -0.246334        -6.7031
  16   0.0000      -0.034666        -0.9433
  17   0.0000      -0.034127        -0.9286
  18   0.0000      -0.017566        -0.4780
  19   0.0000      -0.007751        -0.2109
  20   0.0000       0.008362         0.2275

MULLIKEN ATOMIC CHARGES
-----------------------
   0 O :    0.787207
   1 H :    0.397378
   2 H :    0.344177
   3 C :   -0.876111
   4 H :   -0.631764
   5 H :    0.609260
   6 Al:   -0.966011
   7 H :    0.335864
Sum of atomic charges:   -0.0000000

LOEWDIN ATOMIC CHARGES
----------------------
   0 O :   -0.541586
   1 H :    0.000387
   2 H :   -0.001299
   3 C :   -0.011353
   4 H :    0.002987
   5 H :    0.039378
   6 Al:    0.522785
   7 H :   -0.011298

  Mayer bond orders larger than 0.100000
B(  0-O ,  3-C ) :   0.5121 B(  0-O ,  6-Al) :  -2.3318 B(  1-H ,  3-C ) :   0.8373
B(  2-H ,  3-C ) :   0.8994 B(  3-C ,  7-H ) :   0.8683 B(  4-H ,  5-H ) :   0.6324

Dispersion correction           -0.000380658
FINAL SINGLE POINT ENERGY      -358.739081016179

DIPOLE MOMENT
-------------
                                X             Y             Z
Electronic contribution:      8.78118      -0.00523       5.31866
Nuclear contribution   :     -8.98536       0.01025      -5.24566
                        -----------------------------------------
Total Dipole Moment    :     -0.20417       0.00502       0.07300
                        -----------------------------------------
Magnitude (a.u.)       :      0.21689
Magnitude (Debye)      :      0.55129

Rotational constants in cm-1:     0.678137     0.159402     0.132325
Rotational constants in MHz : 20330.024381  4778.738837  3967.007595

                             ****ORCA TERMINATED NORMALLY****
TOTAL RUN TIME: 0 days 0 hours 0 minutes 5 seconds 820 msec
