                         Program Version 4.2.0 -  RELEASE  -
|  1> #
|  2> # 050 M06-D3/Def2-TZVPPD
|  3> #
|  4> ! m06 d3zero def2-tzvppd def2/jk grid4 nofinalgrid
|  5>
|  6> *xyz 0 1
|  7> H          0.20940       -0.52586       -2.49943
|  8> Cl        -0.00687       -1.57667        0.66924
|  9> H         -0.20240       -1.10325       -2.75186
| 10> H         -1.52841        1.31136        0.17964
| 11> H          1.18008        1.27520       -0.42375
| 12> H          0.01798       -1.62546        1.96923
| 13> Al        -0.00655        1.11839        0.64244
| 14> H          0.33679        1.12629        2.21448
| 15> *
| 16>
| 17> %maxcore 5000
| 18>
| 19> %pal
| 20> nprocs = 24
| 21> end
| 22>
| 23>
| 24>                          ****END OF INPUT****

CARTESIAN COORDINATES (ANGSTROEM)
---------------------------------
  H      0.209400   -0.525860   -2.499430
  Cl    -0.006870   -1.576670    0.669240
  H     -0.202400   -1.103250   -2.751860
  H     -1.528410    1.311360    0.179640
  H      1.180080    1.275200   -0.423750
  H      0.017980   -1.625460    1.969230
  Al    -0.006550    1.118390    0.642440
  H      0.336790    1.126290    2.214480

 Total Charge           Charge          ....    0
 Multiplicity           Mult            ....    1
 Number of Electrons    NEL             ....   36
 Basis Dimension        Dim             ....  201

ORBITAL ENERGIES
----------------

  NO   OCC          E(Eh)            E(eV)
   0   2.0000    -101.772681     -2769.3754
   1   2.0000     -56.141433     -1527.6861
   2   2.0000      -9.648717      -262.5549
   3   2.0000      -7.357118      -200.1974
   4   2.0000      -7.349746      -199.9968
   5   2.0000      -7.348385      -199.9597
   6   2.0000      -4.191155      -114.0471
   7   2.0000      -2.715142       -73.8828
   8   2.0000      -2.707126       -73.6646
   9   2.0000      -2.706930       -73.6593
  10   2.0000      -0.912631       -24.8339
  11   2.0000      -0.524976       -14.2853
  12   2.0000      -0.443022       -12.0553
  13   2.0000      -0.436916       -11.8891
  14   2.0000      -0.389005       -10.5854
  15   2.0000      -0.375000       -10.2043
  16   2.0000      -0.299385        -8.1467
  17   2.0000      -0.296130        -8.0581
  18   0.0000      -0.051897        -1.4122
  19   0.0000      -0.028568        -0.7774
  20   0.0000      -0.013054        -0.3552
  21   0.0000      -0.000953        -0.0259
  22   0.0000       0.000440         0.0120

MULLIKEN ATOMIC CHARGES
-----------------------
   0 H :   -0.299488
   1 Cl:   -0.263136
   2 H :    0.288767
   3 H :   -0.269879
   4 H :   -0.281859
   5 H :    0.312172
   6 Al:    0.822815
   7 H :   -0.309392
Sum of atomic charges:    0.0000000

LOEWDIN ATOMIC CHARGES
----------------------
   0 H :    0.003211
   1 Cl:    0.514520
   2 H :    0.030909
   3 H :   -0.188730
   4 H :   -0.190235
   5 H :   -0.329487
   6 Al:    0.347763
   7 H :   -0.187951

  Mayer bond orders larger than 0.100000
B(  0-H ,  2-H ) :   0.9150 B(  1-Cl,  5-H ) :   0.9266 B(  1-Cl,  6-Al) :   0.1674
B(  3-H ,  6-Al) :   0.9010 B(  4-H ,  6-Al) :   0.8854 B(  6-Al,  7-H ) :   0.8499

Dispersion correction           -0.000459497
FINAL SINGLE POINT ENERGY      -706.176303597762

DIPOLE MOMENT
-------------
                                X             Y             Z
Electronic contribution:     -0.04336      -3.60884       5.08998
Nuclear contribution   :      0.04784       2.78212      -4.67262
                        -----------------------------------------
Total Dipole Moment    :      0.00448      -0.82672       0.41736
                        -----------------------------------------
Magnitude (a.u.)       :      0.92610
Magnitude (Debye)      :      2.35397

Rotational constants in cm-1:     0.545363     0.134491     0.113645
Rotational constants in MHz : 16349.582447  4031.950699  3406.980673

                             ****ORCA TERMINATED NORMALLY****
TOTAL RUN TIME: 0 days 0 hours 0 minutes 5 seconds 614 msec
