                         Program Version 4.2.0 -  RELEASE  -
|  1> #
|  2> # 070 M06-D3/Def2-TZVPPD
|  3> #
|  4> ! m06 d3zero def2-tzvppd def2/jk grid4 nofinalgrid
|  5>
|  6> *xyz 0 1
|  7> H          0.08530       -0.02655        1.60712
|  8> H          0.90656       -0.78582       -1.39861
|  9> Be        -0.05035        0.92778       -0.02639
| 10> H          0.07901        0.71807        1.80526
| 11> F         -0.04624       -1.68577        0.17900
| 12> C         -0.00461       -0.62157       -0.79461
| 13> H         -0.11623        2.26790        0.10895
| 14> H         -0.85344       -0.79405       -1.48072
| 15> *
| 16>
| 17> %maxcore 5000
| 18>
| 19> %pal
| 20> nprocs = 24
| 21> end
| 22>
| 23>
| 24>                          ****END OF INPUT****

CARTESIAN COORDINATES (ANGSTROEM)
---------------------------------
  H      0.085300   -0.026550    1.607120
  H      0.906560   -0.785820   -1.398610
  Be    -0.050350    0.927780   -0.026390
  H      0.079010    0.718070    1.805260
  F     -0.046240   -1.685770    0.179000
  C     -0.004610   -0.621570   -0.794610
  H     -0.116230    2.267900    0.108950
  H     -0.853440   -0.794050   -1.480720

 Total Charge           Charge          ....    0
 Multiplicity           Mult            ....    1
 Number of Electrons    NEL             ....   24
 Basis Dimension        Dim             ....  184

ORBITAL ENERGIES
----------------

  NO   OCC          E(Eh)            E(eV)
   0   2.0000     -24.744468      -673.3312
   1   2.0000     -10.276217      -279.6301
   2   2.0000      -4.060841      -110.5011
   3   2.0000      -1.199724       -32.6462
   4   2.0000      -0.678373       -18.4595
   5   2.0000      -0.528183       -14.3726
   6   2.0000      -0.481610       -13.1053
   7   2.0000      -0.470984       -12.8161
   8   2.0000      -0.435009       -11.8372
   9   2.0000      -0.352059        -9.5800
  10   2.0000      -0.331420        -9.0184
  11   2.0000      -0.298007        -8.1092
  12   0.0000      -0.040453        -1.1008
  13   0.0000      -0.025837        -0.7031
  14   0.0000      -0.019980        -0.5437
  15   0.0000      -0.011890        -0.3236
  16   0.0000       0.015498         0.4217

MULLIKEN ATOMIC CHARGES
-----------------------
   0 H :   -0.001350
   1 H :    0.283634
   2 Be:    0.434989
   3 H :    0.029810
   4 F :   -0.363060
   5 C :   -0.379816
   6 H :   -0.273885
   7 H :    0.269676
Sum of atomic charges:    0.0000000

LOEWDIN ATOMIC CHARGES
----------------------
   0 H :    0.079320
   1 H :   -0.047815
   2 Be:    0.371414
   3 H :    0.073644
   4 F :   -0.200579
   5 C :   -0.117002
   6 H :   -0.110287
   7 H :   -0.048696

  Mayer bond orders larger than 0.100000
B(  0-H ,  3-H ) :   0.9256 B(  1-H ,  5-C ) :   0.9647 B(  2-Be,  5-C ) :   0.9802
B(  2-Be,  6-H ) :   0.7631 B(  4-F ,  5-C ) :   0.6824 B(  5-C ,  6-H ) :   0.1576
B(  5-C ,  7-H ) :   0.9722

Dispersion correction           -0.000287795
FINAL SINGLE POINT ENERGY      -155.628756505882

DIPOLE MOMENT
-------------
                                X             Y             Z
Electronic contribution:     -0.19986      -3.53407      -0.73144
Nuclear contribution   :      0.26588       3.83479       0.81982
                        -----------------------------------------
Total Dipole Moment    :      0.06601       0.30073       0.08838
                        -----------------------------------------
Magnitude (a.u.)       :      0.32032
Magnitude (Debye)      :      0.81420

Rotational constants in cm-1:     0.879452     0.304630     0.236523
Rotational constants in MHz : 26365.310047  9132.583609  7090.795310

                             ****ORCA TERMINATED NORMALLY****
TOTAL RUN TIME: 0 days 0 hours 0 minutes 4 seconds 851 msec
