                         Program Version 4.2.0 -  RELEASE  -
|  1> #
|  2> # 076 M06-D3/Def2-TZVPPD
|  3> #
|  4> ! m06 d3zero def2-tzvppd def2/jk grid4 nofinalgrid
|  5>
|  6> *xyz 0 1
|  7> H         -0.10732        2.90062       -0.02721
|  8> H          0.35760       -1.90152        0.97790
|  9> Li        -0.27775        0.78724       -0.00029
| 10> H          0.84572       -0.46906       -0.34423
| 11> H         -1.10236       -0.68915        0.32212
| 12> B         -0.04346       -1.30148        0.00006
| 13> H          0.61490        2.68175        0.02928
| 14> H         -0.28734       -2.00840       -0.95762
| 15> *
| 16>
| 17> %maxcore 5000
| 18>
| 19> %pal
| 20> nprocs = 24
| 21> end
| 22>
| 23>
| 24>                          ****END OF INPUT****

CARTESIAN COORDINATES (ANGSTROEM)
---------------------------------
  H     -0.107320    2.900620   -0.027210
  H      0.357600   -1.901520    0.977900
  Li    -0.277750    0.787240   -0.000290
  H      0.845720   -0.469060   -0.344230
  H     -1.102360   -0.689150    0.322120
  B     -0.043460   -1.301480    0.000060
  H      0.614900    2.681750    0.029280
  H     -0.287340   -2.008400   -0.957620

 Total Charge           Charge          ....    0
 Multiplicity           Mult            ....    1
 Number of Electrons    NEL             ....   14
 Basis Dimension        Dim             ....  161

ORBITAL ENERGIES
----------------

  NO   OCC          E(Eh)            E(eV)
   0   2.0000      -6.703763      -182.4187
   1   2.0000      -2.049167       -55.7607
   2   2.0000      -0.535134       -14.5617
   3   2.0000      -0.488546       -13.2940
   4   2.0000      -0.306009        -8.3269
   5   2.0000      -0.289280        -7.8717
   6   2.0000      -0.275322        -7.4919
   7   0.0000      -0.061507        -1.6737
   8   0.0000      -0.043301        -1.1783
   9   0.0000      -0.039350        -1.0708
  10   0.0000      -0.024631        -0.6702
  11   0.0000       0.012613         0.3432

MULLIKEN ATOMIC CHARGES
-----------------------
   0 H :    0.070303
   1 H :   -0.014030
   2 Li:    0.657806
   3 H :   -0.301887
   4 H :   -0.228501
   5 B :   -0.188859
   6 H :    0.016490
   7 H :   -0.011323
Sum of atomic charges:    0.0000000

LOEWDIN ATOMIC CHARGES
----------------------
   0 H :    0.098859
   1 H :   -0.069585
   2 Li:    0.332332
   3 H :   -0.081650
   4 H :   -0.073309
   5 B :   -0.232600
   6 H :    0.095729
   7 H :   -0.069776

  Mayer bond orders larger than 0.100000
B(  0-H ,  6-H ) :   0.9086 B(  1-H ,  5-B ) :   0.9594 B(  2-Li,  3-H ) :   0.1425
B(  2-Li,  4-H ) :   0.1260 B(  2-Li,  5-B ) :   0.1565 B(  3-H ,  5-B ) :   0.7930
B(  4-H ,  5-B ) :   0.8340 B(  5-B ,  7-H ) :   0.9625

Dispersion correction           -0.000185328
FINAL SINGLE POINT ENERGY       -35.945845495500

DIPOLE MOMENT
-------------
                                X             Y             Z
Electronic contribution:     -1.18680       0.81581      -0.00002
Nuclear contribution   :      0.92718       2.12684       0.00062
                        -----------------------------------------
Total Dipole Moment    :     -0.25962       2.94265       0.00061
                        -----------------------------------------
Magnitude (a.u.)       :      2.95408
Magnitude (Debye)      :      7.50867

Rotational constants in cm-1:     3.344864     0.365518     0.359194
Rotational constants in MHz : 100276.510227 10957.945080 10768.366475

                             ****ORCA TERMINATED NORMALLY****
TOTAL RUN TIME: 0 days 0 hours 0 minutes 4 seconds 369 msec
