                         Program Version 4.2.0 -  RELEASE  -
|  1> #
|  2> # 088 M06-D3/Def2-TZVPPD
|  3> #
|  4> ! m06 d3zero def2-tzvppd def2/jk grid4 nofinalgrid
|  5>
|  6> *xyz 0 1
|  7> C          0.81376        0.10372        0.34640
|  8> H          0.87654        0.17194        1.44377
|  9> H          1.67271        0.57624       -0.15360
| 10> N          0.56076       -1.37061        0.00951
| 11> C         -0.53618        0.54868       -0.29052
| 12> S         -2.13839       -0.48145        0.15104
| 13> H         -0.69523        1.33853       -1.02043
| 14> C         -0.55397       -0.88705       -0.48618
| 15> *
| 16>
| 17> %maxcore 5000
| 18>
| 19> %pal
| 20> nprocs = 24
| 21> end
| 22>
| 23>
| 24>                          ****END OF INPUT****

CARTESIAN COORDINATES (ANGSTROEM)
---------------------------------
  C      0.813760    0.103720    0.346400
  H      0.876540    0.171940    1.443770
  H      1.672710    0.576240   -0.153600
  N      0.560760   -1.370610    0.009510
  C     -0.536180    0.548680   -0.290520
  S     -2.138390   -0.481450    0.151040
  H     -0.695230    1.338530   -1.020430
  C     -0.553970   -0.887050   -0.486180

 Total Charge           Charge          ....    0
 Multiplicity           Mult            ....    1
 Number of Electrons    NEL             ....   44
 Basis Dimension        Dim             ....  250

ORBITAL ENERGIES
----------------

  NO   OCC          E(Eh)            E(eV)
   0   2.0000     -89.073107     -2423.8025
   1   2.0000     -14.399011      -391.8170
   2   2.0000     -10.339348      -281.3480
   3   2.0000     -10.314408      -280.6693
   4   2.0000     -10.300516      -280.2913
   5   2.0000      -8.087959      -220.0846
   6   2.0000      -6.007330      -163.4678
   7   2.0000      -6.005490      -163.4177
   8   2.0000      -5.996996      -163.1865
   9   2.0000      -1.008440       -27.4411
  10   2.0000      -0.836956       -22.7747
  11   2.0000      -0.725603       -19.7447
  12   2.0000      -0.636581       -17.3223
  13   2.0000      -0.542799       -14.7703
  14   2.0000      -0.497098       -13.5267
  15   2.0000      -0.478381       -13.0174
  16   2.0000      -0.463624       -12.6159
  17   2.0000      -0.384396       -10.4599
  18   2.0000      -0.359095        -9.7715
  19   2.0000      -0.328434        -8.9371
  20   2.0000      -0.269078        -7.3220
  21   2.0000      -0.253857        -6.9078
  22   0.0000      -0.092388        -2.5140
  23   0.0000      -0.041259        -1.1227
  24   0.0000      -0.025026        -0.6810
  25   0.0000      -0.011026        -0.3000
  26   0.0000      -0.007753        -0.2110

MULLIKEN ATOMIC CHARGES
-----------------------
   0 C :   -0.482992
   1 H :    0.415797
   2 H :    0.471698
   3 N :   -0.802170
   4 C :   -0.595352
   5 S :   -0.283305
   6 H :    0.563509
   7 C :    0.712815
Sum of atomic charges:   -0.0000000

LOEWDIN ATOMIC CHARGES
----------------------
   0 C :   -0.031372
   1 H :    0.027015
   2 H :    0.022220
   3 N :    0.064675
   4 C :   -0.268765
   5 S :    0.854705
   6 H :   -0.017032
   7 C :   -0.651447

  Mayer bond orders larger than 0.100000
B(  0-C ,  1-H ) :   0.9563 B(  0-C ,  2-H ) :   0.7930 B(  0-C ,  3-N ) :   0.4273
B(  0-C ,  4-C ) :   0.6642 B(  0-C ,  7-C ) :   0.1035 B(  3-N ,  4-C ) :   0.1731
B(  3-N ,  5-S ) :   0.1038 B(  3-N ,  7-C ) :   1.1754 B(  4-C ,  5-S ) :   0.7865
B(  4-C ,  6-H ) :   0.8298 B(  4-C ,  7-C ) :   0.6105 B(  5-S ,  7-C ) :   0.9871

Dispersion correction           -0.000180027
FINAL SINGLE POINT ENERGY      -568.828993070936

DIPOLE MOMENT
-------------
                                X             Y             Z
Electronic contribution:     -3.86944      -2.11621      -0.36371
Nuclear contribution   :      3.84230       3.12311       0.24615
                        -----------------------------------------
Total Dipole Moment    :     -0.02715       1.00690      -0.11756
                        -----------------------------------------
Magnitude (a.u.)       :      1.01411
Magnitude (Debye)      :      2.57766

Rotational constants in cm-1:     0.386346     0.125803     0.105869
Rotational constants in MHz : 11582.371237  3771.469962  3173.859054

                             ****ORCA TERMINATED NORMALLY****
TOTAL RUN TIME: 0 days 0 hours 0 minutes 13 seconds 1 msec
