                         Program Version 4.2.0 -  RELEASE  -
|  1> #
|  2> # 096 M06-D3/Def2-TZVPPD
|  3> #
|  4> ! m06 d3zero def2-tzvppd def2/jk grid4 nofinalgrid
|  5>
|  6> *xyz 0 1
|  7> H          0.74842        1.26851        0.59882
|  8> C         -0.16355        0.74665        0.30940
|  9> H          0.74849       -1.26857        0.59856
| 10> C         -0.16356       -0.74663        0.30935
| 11> H          1.21141        0.00004       -1.60315
| 12> H         -1.08115        1.25625        0.60788
| 13> P         -0.21890        0.00004       -1.42860
| 14> H         -1.08115       -1.25629        0.60773
| 15> *
| 16>
| 17> %maxcore 5000
| 18>
| 19> %pal
| 20> nprocs = 24
| 21> end
| 22>
| 23>
| 24>                          ****END OF INPUT****

CARTESIAN COORDINATES (ANGSTROEM)
---------------------------------
  H      0.748420    1.268510    0.598820
  C     -0.163550    0.746650    0.309400
  H      0.748490   -1.268570    0.598560
  C     -0.163560   -0.746630    0.309350
  H      1.211410    0.000040   -1.603150
  H     -1.081150    1.256250    0.607880
  P     -0.218900    0.000040   -1.428600
  H     -1.081150   -1.256290    0.607730

 Total Charge           Charge          ....    0
 Multiplicity           Mult            ....    1
 Number of Electrons    NEL             ....   32
 Basis Dimension        Dim             ....  207

ORBITAL ENERGIES
----------------

  NO   OCC          E(Eh)            E(eV)
   0   2.0000     -77.217669     -2101.1996
   1   2.0000     -10.252030      -278.9719
   2   2.0000     -10.251730      -278.9638
   3   2.0000      -6.644139      -180.7962
   4   2.0000      -4.766048      -129.6908
   5   2.0000      -4.762641      -129.5981
   6   2.0000      -4.761869      -129.5770
   7   2.0000      -0.819201       -22.2916
   8   2.0000      -0.612021       -16.6539
   9   2.0000      -0.580288       -15.7904
  10   2.0000      -0.489762       -13.3271
  11   2.0000      -0.443054       -12.0561
  12   2.0000      -0.382320       -10.4034
  13   2.0000      -0.341854        -9.3023
  14   2.0000      -0.278171        -7.5694
  15   2.0000      -0.274348        -7.4654
  16   0.0000      -0.018640        -0.5072
  17   0.0000      -0.012348        -0.3360
  18   0.0000       0.002979         0.0811
  19   0.0000       0.016333         0.4444
  20   0.0000       0.027797         0.7564

MULLIKEN ATOMIC CHARGES
-----------------------
   0 H :    0.516171
   1 C :   -1.019466
   2 H :    0.516121
   3 C :   -1.019234
   4 H :    0.055899
   5 H :    0.538760
   6 P :   -0.127021
   7 H :    0.538772
Sum of atomic charges:    0.0000000

LOEWDIN ATOMIC CHARGES
----------------------
   0 H :   -0.039312
   1 C :   -0.269677
   2 H :   -0.039278
   3 C :   -0.269706
   4 H :   -0.172197
   5 H :   -0.044721
   6 P :    0.879625
   7 H :   -0.044733

  Mayer bond orders larger than 0.100000
B(  0-H ,  1-C ) :   0.7903 B(  1-C ,  3-C ) :   0.5358 B(  1-C ,  5-H ) :   0.7675
B(  1-C ,  6-P ) :   0.7864 B(  2-H ,  3-C ) :   0.7903 B(  3-C ,  6-P ) :   0.7864
B(  3-C ,  7-H ) :   0.7674 B(  4-H ,  6-P ) :   0.9883

Dispersion correction           -0.000145933
FINAL SINGLE POINT ENERGY      -420.503635246037

DIPOLE MOMENT
-------------
                                X             Y             Z
Electronic contribution:     -1.20851       0.00012      -3.95148
Nuclear contribution   :      1.35041      -0.00018       4.31337
                        -----------------------------------------
Total Dipole Moment    :      0.14189      -0.00006       0.36189
                        -----------------------------------------
Magnitude (a.u.)       :      0.38871
Magnitude (Debye)      :      0.98803

Rotational constants in cm-1:     0.669213     0.315945     0.248635
Rotational constants in MHz : 20062.492743  9471.799383  7453.892881

                             ****ORCA TERMINATED NORMALLY****
TOTAL RUN TIME: 0 days 0 hours 0 minutes 6 seconds 973 msec
