                         Program Version 4.2.0 -  RELEASE  -
|  1> #
|  2> # 104 M06-D3/Def2-TZVPPD
|  3> #
|  4> ! m06 d3zero def2-tzvppd def2/jk grid4 nofinalgrid
|  5>
|  6> *xyz 0 2
|  7> C          0.18239        0.81792       -0.17289
|  8> H         -2.32613        0.04031        1.01174
|  9> H          2.24798        0.73105       -0.01871
| 10> C          1.34005        0.10819       -0.12066
| 11> H          0.11379        1.91914       -0.21133
| 12> Si        -1.43329       -0.14152       -0.20061
| 13> H         -1.02937       -1.64029       -0.13873
| 14> Li         0.90457       -1.83481       -0.14881
| 15> *
| 16>
| 17> %maxcore 5000
| 18>
| 19> %pal
| 20> nprocs = 24
| 21> end
| 22>
| 23>
| 24>                          ****END OF INPUT****

CARTESIAN COORDINATES (ANGSTROEM)
---------------------------------
  C      0.182390    0.817920   -0.172890
  H     -2.326130    0.040310    1.011740
  H      2.247980    0.731050   -0.018710
  C      1.340050    0.108190   -0.120660
  H      0.113790    1.919140   -0.211330
  Si    -1.433290   -0.141520   -0.200610
  H     -1.029370   -1.640290   -0.138730
  Li     0.904570   -1.834810   -0.148810

 Total Charge           Charge          ....    0
 Multiplicity           Mult            ....    2
 Number of Electrons    NEL             ....   33
 Basis Dimension        Dim             ....  212

ORBITAL ENERGIES
----------------
                 SPIN UP ORBITALS
  NO   OCC          E(Eh)            E(eV)
   0   1.0000     -66.252328     -1802.8175
   1   1.0000     -10.205435      -277.7040
   2   1.0000     -10.184275      -277.1282
   3   1.0000      -5.354923      -145.7149
   4   1.0000      -3.678637      -100.1008
   5   1.0000      -3.676481      -100.0421
   6   1.0000      -3.674084       -99.9769
   7   1.0000      -2.019925       -54.9650
   8   1.0000      -0.720815       -19.6144
   9   1.0000      -0.545940       -14.8558
  10   1.0000      -0.485482       -13.2106
  11   1.0000      -0.416084       -11.3222
  12   1.0000      -0.352902        -9.6029
  13   1.0000      -0.321218        -8.7408
  14   1.0000      -0.269162        -7.3243
  15   1.0000      -0.219814        -5.9814
  16   1.0000      -0.183157        -4.9840
  17   0.0000      -0.066229        -1.8022
  18   0.0000      -0.028933        -0.7873
  19   0.0000      -0.023176        -0.6306
  20   0.0000      -0.004910        -0.1336
  21   0.0000       0.008607         0.2342

                 SPIN DOWN ORBITALS
  NO   OCC          E(Eh)            E(eV)
   0   1.0000     -66.249595     -1802.7431
   1   1.0000     -10.204786      -277.6863
   2   1.0000     -10.182291      -277.0742
   3   1.0000      -5.351858      -145.6315
   4   1.0000      -3.674474       -99.9875
   5   1.0000      -3.672118       -99.9234
   6   1.0000      -3.670788       -99.8872
   7   1.0000      -2.020079       -54.9691
   8   1.0000      -0.715783       -19.4774
   9   1.0000      -0.533158       -14.5080
  10   1.0000      -0.477132       -12.9834
  11   1.0000      -0.409470       -11.1423
  12   1.0000      -0.346275        -9.4226
  13   1.0000      -0.313961        -8.5433
  14   1.0000      -0.254936        -6.9372
  15   1.0000      -0.209033        -5.6881
  16   0.0000      -0.084045        -2.2870
  17   0.0000      -0.063868        -1.7379
  18   0.0000      -0.026171        -0.7121
  19   0.0000      -0.019803        -0.5389
  20   0.0000      -0.002013        -0.0548

MULLIKEN ATOMIC CHARGES AND SPIN POPULATIONS
--------------------------------------------
   0 C :   -0.244701    0.050306
   1 H :   -0.077955    0.034582
   2 H :    0.358189    0.039553
   3 C :   -1.210244    0.104653
   4 H :    0.490402   -0.006694
   5 Si:    0.282611    0.770164
   6 H :   -0.371352    0.005375
   7 Li:    0.773049    0.002061
Sum of atomic charges         :    0.0000000

LOEWDIN ATOMIC CHARGES AND SPIN POPULATIONS
-------------------------------------------
   0 C :   -0.437488    0.098276
   1 H :   -0.166806    0.070955
   2 H :   -0.119224    0.018708
   3 C :   -0.146417    0.127466
   4 H :   -0.085585    0.000827
   5 Si:    0.704709    0.615758
   6 H :   -0.152049    0.059469
   7 Li:    0.402861    0.008541

  Mayer bond orders larger than 0.100000
B(  0-C ,  3-C ) :   1.4099 B(  0-C ,  4-H ) :   0.8218 B(  0-C ,  5-Si) :   0.7473
B(  1-H ,  5-Si) :   0.9088 B(  2-H ,  3-C ) :   0.9577 B(  3-C ,  5-Si) :   0.3636
B(  3-C ,  7-Li) :   0.1964 B(  5-Si,  6-H ) :   0.6397 B(  6-H ,  7-Li) :   0.1260

Dispersion correction           -0.000202465
FINAL SINGLE POINT ENERGY      -375.497092099248

DIPOLE MOMENT
-------------
                                X             Y             Z
Electronic contribution:      1.20928      -4.43718      -1.20102
Nuclear contribution   :     -0.90522       2.81558       1.17165
                        -----------------------------------------
Total Dipole Moment    :      0.30406      -1.62161      -0.02938
                        -----------------------------------------
Magnitude (a.u.)       :      1.65013
Magnitude (Debye)      :      4.19430

Rotational constants in cm-1:     0.419182     0.179284     0.128388
Rotational constants in MHz : 12566.751634  5374.809128  3848.967152

                             ****ORCA TERMINATED NORMALLY****
TOTAL RUN TIME: 0 days 0 hours 0 minutes 9 seconds 405 msec
