                         Program Version 4.2.0 -  RELEASE  -
|  1> #
|  2> # 111 M06-D3/Def2-TZVPPD
|  3> #
|  4> ! m06 d3zero def2-tzvppd def2/jk grid4 nofinalgrid
|  5>
|  6> *xyz 0 2
|  7> N          0.85218        0.06581        1.54293
|  8> C         -0.45432        0.04016        1.51127
|  9> H          0.51389       -1.04630       -1.15231
| 10> H         -1.27128       -0.21181        2.19239
| 11> H          0.93075        0.61434       -1.62997
| 12> C          0.02563        0.43731        0.29642
| 13> C          0.17679        0.00817       -1.10677
| 14> H         -0.77364        0.09232       -1.65395
| 15> *
| 16>
| 17> %maxcore 5000
| 18>
| 19> %pal
| 20> nprocs = 24
| 21> end
| 22>
| 23>
| 24>                          ****END OF INPUT****

CARTESIAN COORDINATES (ANGSTROEM)
---------------------------------
  N      0.852180    0.065810    1.542930
  C     -0.454320    0.040160    1.511270
  H      0.513890   -1.046300   -1.152310
  H     -1.271280   -0.211810    2.192390
  H      0.930750    0.614340   -1.629970
  C      0.025630    0.437310    0.296420
  C      0.176790    0.008170   -1.106770
  H     -0.773640    0.092320   -1.653950

 Total Charge           Charge          ....    0
 Multiplicity           Mult            ....    2
 Number of Electrons    NEL             ....   29
 Basis Dimension        Dim             ....  216

ORBITAL ENERGIES
----------------
                 SPIN UP ORBITALS
  NO   OCC          E(Eh)            E(eV)
   0   1.0000     -14.413678      -392.2161
   1   1.0000     -10.308535      -280.5095
   2   1.0000     -10.290207      -280.0108
   3   1.0000     -10.253751      -279.0188
   4   1.0000      -1.013528       -27.5795
   5   1.0000      -0.763224       -20.7684
   6   1.0000      -0.613352       -16.6901
   7   1.0000      -0.589782       -16.0488
   8   1.0000      -0.480694       -13.0803
   9   1.0000      -0.461162       -12.5489
  10   1.0000      -0.439188       -11.9509
  11   1.0000      -0.401770       -10.9327
  12   1.0000      -0.371301       -10.1036
  13   1.0000      -0.304190        -8.2774
  14   1.0000      -0.191669        -5.2156
  15   0.0000      -0.035220        -0.9584
  16   0.0000      -0.020107        -0.5471
  17   0.0000      -0.007053        -0.1919
  18   0.0000       0.013215         0.3596
  19   0.0000       0.032494         0.8842

                 SPIN DOWN ORBITALS
  NO   OCC          E(Eh)            E(eV)
   0   1.0000     -14.406733      -392.0271
   1   1.0000     -10.310589      -280.5654
   2   1.0000     -10.279978      -279.7324
   3   1.0000     -10.253594      -279.0145
   4   1.0000      -0.994667       -27.0663
   5   1.0000      -0.755135       -20.5483
   6   1.0000      -0.608731       -16.5644
   7   1.0000      -0.573628       -15.6092
   8   1.0000      -0.471394       -12.8273
   9   1.0000      -0.439250       -11.9526
  10   1.0000      -0.434287       -11.8175
  11   1.0000      -0.379631       -10.3303
  12   1.0000      -0.359021        -9.7695
  13   1.0000      -0.288819        -7.8592
  14   0.0000      -0.046753        -1.2722
  15   0.0000      -0.023916        -0.6508
  16   0.0000      -0.012421        -0.3380
  17   0.0000      -0.002165        -0.0589
  18   0.0000       0.026463         0.7201

MULLIKEN ATOMIC CHARGES AND SPIN POPULATIONS
--------------------------------------------
   0 N :   -0.619529    0.331625
   1 C :   -0.166918   -0.036357
   2 H :    0.464593    0.069646
   3 H :    0.465232   -0.005226
   4 H :    0.408953    0.031832
   5 C :    0.332037    0.676310
   6 C :   -1.308696   -0.069682
   7 H :    0.424327    0.001853
Sum of atomic charges         :   -0.0000000

LOEWDIN ATOMIC CHARGES AND SPIN POPULATIONS
-------------------------------------------
   0 N :    0.127829    0.370371
   1 C :   -0.058077    0.002930
   2 H :    0.000454    0.025461
   3 H :    0.009048   -0.011987
   4 H :   -0.011079    0.008924
   5 C :   -0.160036    0.519369
   6 C :    0.103021    0.085723
   7 H :   -0.011160   -0.000791

  Mayer bond orders larger than 0.100000
B(  0-N ,  1-C ) :   1.4296 B(  0-N ,  5-C ) :   0.3415 B(  1-C ,  3-H ) :   0.8224
B(  1-C ,  5-C ) :   0.8724 B(  2-H ,  6-C ) :   0.7611 B(  4-H ,  6-C ) :   0.9201
B(  5-C ,  6-C ) :   0.5119 B(  6-C ,  7-H ) :   0.9053

Dispersion correction           -0.000247400
FINAL SINGLE POINT ENERGY      -171.272670915950

DIPOLE MOMENT
-------------
                                X             Y             Z
Electronic contribution:      0.28497       0.73586       3.66109
Nuclear contribution   :     -1.13576      -0.94785      -4.02666
                        -----------------------------------------
Total Dipole Moment    :     -0.85079      -0.21199      -0.36556
                        -----------------------------------------
Magnitude (a.u.)       :      0.94996
Magnitude (Debye)      :      2.41461

Rotational constants in cm-1:     0.919406     0.218621     0.189338
Rotational constants in MHz : 27563.112958  6554.079895  5676.208610

                             ****ORCA TERMINATED NORMALLY****
TOTAL RUN TIME: 0 days 0 hours 0 minutes 9 seconds 787 msec
