                         Program Version 4.2.0 -  RELEASE  -
|  1> #
|  2> # 123 M06-D3/Def2-TZVPPD
|  3> #
|  4> ! m06 d3zero def2-tzvppd def2/jk grid4 nofinalgrid
|  5>
|  6> *xyz 0 2
|  7> H         -0.05566       -1.00378        1.35004
|  8> H         -0.85108        0.57288        1.07820
|  9> C          0.00090       -0.05557        0.78344
| 10> H         -0.84105       -0.66759       -1.01558
| 11> H          0.91403        0.47335        1.08996
| 12> H          0.01842        1.61333       -1.60506
| 13> H          0.81267       -0.72579       -1.00914
| 14> N          0.00176       -0.20682       -0.67186
| 15> *
| 16>
| 17> %maxcore 5000
| 18>
| 19> %pal
| 20> nprocs = 24
| 21> end
| 22>
| 23>
| 24>                          ****END OF INPUT****

CARTESIAN COORDINATES (ANGSTROEM)
---------------------------------
  H     -0.055660   -1.003780    1.350040
  H     -0.851080    0.572880    1.078200
  C      0.000900   -0.055570    0.783440
  H     -0.841050   -0.667590   -1.015580
  H      0.914030    0.473350    1.089960
  H      0.018420    1.613330   -1.605060
  H      0.812670   -0.725790   -1.009140
  N      0.001760   -0.206820   -0.671860

 Total Charge           Charge          ....    0
 Multiplicity           Mult            ....    2
 Number of Electrons    NEL             ....   19
 Basis Dimension        Dim             ....  176

ORBITAL ENERGIES
----------------
                 SPIN UP ORBITALS
  NO   OCC          E(Eh)            E(eV)
   0   1.0000     -14.390055      -391.5733
   1   1.0000     -10.262202      -279.2487
   2   1.0000      -0.905350       -24.6358
   3   1.0000      -0.680298       -18.5118
   4   1.0000      -0.517524       -14.0825
   5   1.0000      -0.465096       -12.6559
   6   1.0000      -0.430569       -11.7164
   7   1.0000      -0.388668       -10.5762
   8   1.0000      -0.314483        -8.5575
   9   1.0000      -0.203353        -5.5335
  10   0.0000      -0.021365        -0.5814
  11   0.0000       0.000485         0.0132
  12   0.0000       0.026913         0.7323
  13   0.0000       0.047153         1.2831
  14   0.0000       0.062149         1.6912

                 SPIN DOWN ORBITALS
  NO   OCC          E(Eh)            E(eV)
   0   1.0000     -14.386195      -391.4683
   1   1.0000     -10.262306      -279.2515
   2   1.0000      -0.899852       -24.4862
   3   1.0000      -0.678676       -18.4677
   4   1.0000      -0.514268       -13.9939
   5   1.0000      -0.461518       -12.5585
   6   1.0000      -0.426677       -11.6105
   7   1.0000      -0.387881       -10.5548
   8   1.0000      -0.277676        -7.5560
   9   0.0000      -0.039783        -1.0826
  10   0.0000      -0.010082        -0.2743
  11   0.0000       0.008676         0.2361
  12   0.0000       0.030986         0.8432
  13   0.0000       0.050738         1.3807

MULLIKEN ATOMIC CHARGES AND SPIN POPULATIONS
--------------------------------------------
   0 H :    0.392393    0.015090
   1 H :    0.462129    0.003129
   2 C :   -1.205318   -0.065302
   3 H :    0.186002   -0.037861
   4 H :    0.464791    0.004587
   5 H :   -0.059968    0.899573
   6 H :    0.187134   -0.035284
   7 N :   -0.427164    0.216067
Sum of atomic charges         :    0.0000000

LOEWDIN ATOMIC CHARGES AND SPIN POPULATIONS
-------------------------------------------
   0 H :   -0.015623    0.004846
   1 H :   -0.013028    0.005437
   2 C :    0.035830    0.016081
   3 H :   -0.103601    0.012989
   4 H :   -0.012038    0.004453
   5 H :    0.030306    0.756437
   6 H :   -0.102665    0.012472
   7 N :    0.180819    0.187285

  Mayer bond orders larger than 0.100000
B(  0-H ,  2-C ) :   0.8772 B(  1-H ,  2-C ) :   0.7978 B(  2-C ,  4-H ) :   0.7881
B(  2-C ,  7-N ) :   0.7621 B(  3-H ,  7-N ) :   1.0594 B(  5-H ,  7-N ) :   0.3449
B(  6-H ,  7-N ) :   1.0591

Dispersion correction           -0.000192972
FINAL SINGLE POINT ENERGY       -96.321695217353

DIPOLE MOMENT
-------------
                                X             Y             Z
Electronic contribution:     -0.00812      -1.67007       0.48014
Nuclear contribution   :     -0.00825       0.82489      -0.08847
                        -----------------------------------------
Total Dipole Moment    :     -0.01638      -0.84518       0.39167
                        -----------------------------------------
Magnitude (a.u.)       :      0.93167
Magnitude (Debye)      :      2.36812

Rotational constants in cm-1:     2.000356     0.660608     0.601270
Rotational constants in MHz : 59969.149740 19804.516397 18025.616086

                             ****ORCA TERMINATED NORMALLY****
TOTAL RUN TIME: 0 days 0 hours 0 minutes 6 seconds 18 msec
