                         Program Version 4.2.0 -  RELEASE  -
|  1> #
|  2> # 125 M06-D3/Def2-TZVPPD
|  3> #
|  4> ! m06 d3zero def2-tzvppd def2/jk grid4 nofinalgrid
|  5>
|  6> *xyz 0 1
|  7> Li        -0.48880       -0.51538       -0.00659
|  8> H         -0.55944        2.54233       -0.00436
|  9> H         -2.17580       -1.82520        0.01329
| 10> C         -0.08896        1.54088       -0.00480
| 11> H         -1.56083       -2.26841        0.00934
| 12> Cl         1.44004       -1.55839       -0.00318
| 13> H          1.87023        0.32576       -0.00203
| 14> S          1.56356        1.75840       -0.00167
| 15> *
| 16>
| 17> %maxcore 5000
| 18>
| 19> %pal
| 20> nprocs = 24
| 21> end
| 22>
| 23>
| 24>                          ****END OF INPUT****

CARTESIAN COORDINATES (ANGSTROEM)
---------------------------------
  Li    -0.488800   -0.515380   -0.006590
  H     -0.559440    2.542330   -0.004360
  H     -2.175800   -1.825200    0.013290
  C     -0.088960    1.540880   -0.004800
  H     -1.560830   -2.268410    0.009340
  Cl     1.440040   -1.558390   -0.003180
  H      1.870230    0.325760   -0.002030
  S      1.563560    1.758400   -0.001670

 Total Charge           Charge          ....    0
 Multiplicity           Mult            ....    1
 Number of Electrons    NEL             ....   46
 Basis Dimension        Dim             ....  229

ORBITAL ENERGIES
----------------

  NO   OCC          E(Eh)            E(eV)
   0   2.0000    -101.627599     -2765.4276
   1   2.0000     -89.075858     -2423.8773
   2   2.0000     -10.297949      -280.2215
   3   2.0000      -9.504462      -258.6296
   4   2.0000      -8.093398      -220.2325
   5   2.0000      -7.208029      -196.1404
   6   2.0000      -7.207475      -196.1254
   7   2.0000      -7.206742      -196.1054
   8   2.0000      -6.009991      -163.5402
   9   2.0000      -6.008716      -163.5055
  10   2.0000      -6.006982      -163.4583
  11   2.0000      -2.005169       -54.5634
  12   2.0000      -0.829705       -22.5774
  13   2.0000      -0.751889       -20.4599
  14   2.0000      -0.613162       -16.6850
  15   2.0000      -0.496091       -13.4993
  16   2.0000      -0.439858       -11.9692
  17   2.0000      -0.421855       -11.4793
  18   2.0000      -0.348626        -9.4866
  19   2.0000      -0.299059        -8.1378
  20   2.0000      -0.288904        -7.8615
  21   2.0000      -0.272093        -7.4040
  22   2.0000      -0.258360        -7.0303
  23   0.0000      -0.101164        -2.7528
  24   0.0000      -0.044110        -1.2003
  25   0.0000      -0.027312        -0.7432
  26   0.0000      -0.024539        -0.6677
  27   0.0000      -0.018508        -0.5036

MULLIKEN ATOMIC CHARGES
-----------------------
   0 Li:    0.792895
   1 H :    0.445610
   2 H :    0.019629
   3 C :   -0.667366
   4 H :    0.024583
   5 Cl:   -0.750402
   6 H :    0.239005
   7 S :   -0.103953
Sum of atomic charges:    0.0000000

LOEWDIN ATOMIC CHARGES
----------------------
   0 Li:   -0.009166
   1 H :   -0.165074
   2 H :    0.091814
   3 C :   -0.361127
   4 H :    0.064992
   5 Cl:   -0.045036
   6 H :   -0.408005
   7 S :    0.831604

  Mayer bond orders larger than 0.100000
B(  0-Li,  5-Cl) :   0.1901 B(  1-H ,  3-C ) :   0.8008 B(  2-H ,  4-H ) :   0.9403
B(  3-C ,  7-S ) :   1.4996 B(  5-Cl,  6-H ) :   0.1717 B(  6-H ,  7-S ) :   0.7835

Dispersion correction           -0.000351750
FINAL SINGLE POINT ENERGY      -906.385690141318

DIPOLE MOMENT
-------------
                                X             Y             Z
Electronic contribution:      3.83157      -0.06066      -0.03095
Nuclear contribution   :     -5.38329       1.10078       0.02957
                        -----------------------------------------
Total Dipole Moment    :     -1.55172       1.04012      -0.00138
                        -----------------------------------------
Magnitude (a.u.)       :      1.86807
Magnitude (Debye)      :      4.74825

Rotational constants in cm-1:     0.253463     0.073830     0.057176
Rotational constants in MHz :  7598.615767  2213.361097  1714.083710

                             ****ORCA TERMINATED NORMALLY****
TOTAL RUN TIME: 0 days 0 hours 0 minutes 6 seconds 338 msec
