                         Program Version 4.2.0 -  RELEASE  -
|  1> #
|  2> # 136 M06-D3/Def2-TZVPPD
|  3> #
|  4> ! m06 d3zero def2-tzvppd def2/jk grid4 nofinalgrid
|  5>
|  6> *xyz 0 1
|  7> H         -0.64763        2.95877       -0.31431
|  8> H         -0.38809        2.29902       -0.56811
|  9> H         -0.46982        0.02713        1.23682
| 10> H         -0.44619       -2.23309       -1.25807
| 11> H          1.15514       -0.83076        1.35211
| 12> O          0.58676       -0.20120       -0.67466
| 13> C          0.25357       -0.64235        0.76247
| 14> B         -0.04374       -1.37752       -0.53625
| 15> *
| 16>
| 17> %maxcore 5000
| 18>
| 19> %pal
| 20> nprocs = 24
| 21> end
| 22>
| 23>
| 24>                          ****END OF INPUT****

CARTESIAN COORDINATES (ANGSTROEM)
---------------------------------
  H     -0.647630    2.958770   -0.314310
  H     -0.388090    2.299020   -0.568110
  H     -0.469820    0.027130    1.236820
  H     -0.446190   -2.233090   -1.258070
  H      1.155140   -0.830760    1.352110
  O      0.586760   -0.201200   -0.674660
  C      0.253570   -0.642350    0.762470
  B     -0.043740   -1.377520   -0.536250

 Total Charge           Charge          ....    0
 Multiplicity           Mult            ....    1
 Number of Electrons    NEL             ....   24
 Basis Dimension        Dim             ....  199

ORBITAL ENERGIES
----------------

  NO   OCC          E(Eh)            E(eV)
   0   2.0000     -19.248452      -523.7770
   1   2.0000     -10.283312      -279.8232
   2   2.0000      -6.836847      -186.0401
   3   2.0000      -1.075973       -29.2787
   4   2.0000      -0.677089       -18.4245
   5   2.0000      -0.519085       -14.1250
   6   2.0000      -0.482202       -13.1214
   7   2.0000      -0.474492       -12.9116
   8   2.0000      -0.426170       -11.5967
   9   2.0000      -0.401075       -10.9138
  10   2.0000      -0.344217        -9.3666
  11   2.0000      -0.310003        -8.4356
  12   0.0000      -0.027566        -0.7501
  13   0.0000      -0.025772        -0.7013
  14   0.0000      -0.009132        -0.2485
  15   0.0000       0.003247         0.0884
  16   0.0000       0.022134         0.6023

MULLIKEN ATOMIC CHARGES
-----------------------
   0 H :    0.405192
   1 H :   -0.403602
   2 H :    0.459805
   3 H :    0.448943
   4 H :    0.424857
   5 O :   -0.442431
   6 C :   -0.822761
   7 B :   -0.070003
Sum of atomic charges:   -0.0000000

LOEWDIN ATOMIC CHARGES
----------------------
   0 H :    0.034833
   1 H :    0.008871
   2 H :   -0.015184
   3 H :    0.023138
   4 H :   -0.011547
   5 O :    0.031279
   6 C :    0.126470
   7 B :   -0.197861

  Mayer bond orders larger than 0.100000
B(  0-H ,  1-H ) :   0.8326 B(  2-H ,  6-C ) :   0.7752 B(  3-H ,  7-B ) :   0.7204
B(  4-H ,  6-C ) :   0.8319 B(  5-O ,  6-C ) :   0.7375 B(  5-O ,  7-B ) :   1.3322
B(  6-C ,  7-B ) :   0.8331

Dispersion correction           -0.000341965
FINAL SINGLE POINT ENERGY      -141.110800663069

DIPOLE MOMENT
-------------
                                X             Y             Z
Electronic contribution:      1.52986      -5.61428      -1.06229
Nuclear contribution   :     -1.71035       5.24617       1.44476
                        -----------------------------------------
Total Dipole Moment    :     -0.18048      -0.36810       0.38247
                        -----------------------------------------
Magnitude (a.u.)       :      0.56067
Magnitude (Debye)      :      1.42512

Rotational constants in cm-1:     0.613602     0.430998     0.306642
Rotational constants in MHz : 18395.316675 12920.983545  9192.908699

                             ****ORCA TERMINATED NORMALLY****
TOTAL RUN TIME: 0 days 0 hours 0 minutes 5 seconds 928 msec
