                         Program Version 4.2.0 -  RELEASE  -
|  1> #
|  2> # 138 M06-D3/Def2-TZVPPD
|  3> #
|  4> ! m06 d3zero def2-tzvppd def2/jk grid4 nofinalgrid
|  5>
|  6> *xyz 0 1
|  7> H          0.64849       -1.47778       -0.13722
|  8> H         -0.62659       -0.18590       -3.09890
|  9> H         -0.40094       -0.71477       -2.61128
| 10> H          0.74472        0.82794        2.20080
| 11> H          0.41684       -1.04544        0.48242
| 12> H         -0.86873        0.85706        2.13389
| 13> Na         0.12711        1.09566       -0.53418
| 14> N         -0.04090        0.64323        1.56447
| 15> *
| 16>
| 17> %maxcore 5000
| 18>
| 19> %pal
| 20> nprocs = 24
| 21> end
| 22>
| 23>
| 24>                          ****END OF INPUT****

CARTESIAN COORDINATES (ANGSTROEM)
---------------------------------
  H      0.648490   -1.477780   -0.137220
  H     -0.626590   -0.185900   -3.098900
  H     -0.400940   -0.714770   -2.611280
  H      0.744720    0.827940    2.200800
  H      0.416840   -1.045440    0.482420
  H     -0.868730    0.857060    2.133890
  Na     0.127110    1.095660   -0.534180
  N     -0.040900    0.643230    1.564470

 Total Charge           Charge          ....    0
 Multiplicity           Mult            ....    1
 Number of Electrons    NEL             ....   24
 Basis Dimension        Dim             ....  174

ORBITAL ENERGIES
----------------

  NO   OCC          E(Eh)            E(eV)
   0   2.0000     -38.575979     -1049.7058
   1   2.0000     -14.251712      -387.8088
   2   2.0000      -2.271429       -61.8087
   3   2.0000      -1.175499       -31.9870
   4   2.0000      -1.174550       -31.9611
   5   2.0000      -1.170534       -31.8519
   6   2.0000      -0.718690       -19.5565
   7   2.0000      -0.483187       -13.1482
   8   2.0000      -0.407236       -11.0815
   9   2.0000      -0.359004        -9.7690
  10   2.0000      -0.239168        -6.5081
  11   2.0000      -0.157124        -4.2756
  12   0.0000      -0.056269        -1.5311
  13   0.0000      -0.030352        -0.8259
  14   0.0000      -0.022481        -0.6118
  15   0.0000      -0.016846        -0.4584
  16   0.0000       0.002151         0.0585

MULLIKEN ATOMIC CHARGES
-----------------------
   0 H :   -0.098671
   1 H :    0.198953
   2 H :   -0.180998
   3 H :    0.075396
   4 H :   -0.024474
   5 H :    0.048731
   6 Na:    0.789146
   7 N :   -0.808083
Sum of atomic charges:    0.0000000

LOEWDIN ATOMIC CHARGES
----------------------
   0 H :    0.036432
   1 H :    0.048450
   2 H :    0.030353
   3 H :   -0.295026
   4 H :   -0.063431
   5 H :   -0.296383
   6 Na:    0.518385
   7 N :    0.021220

  Mayer bond orders larger than 0.100000
B(  0-H ,  4-H ) :   1.0715 B(  1-H ,  2-H ) :   0.9503 B(  3-H ,  7-N ) :   1.2501
B(  5-H ,  7-N ) :   1.2878 B(  6-Na,  7-N ) :   0.3244

Dispersion correction           -0.000223916
FINAL SINGLE POINT ENERGY      -220.559395091887

DIPOLE MOMENT
-------------
                                X             Y             Z
Electronic contribution:      0.53804       7.02128      -1.00447
Nuclear contribution   :     -0.44551      -6.18803      -1.41111
                        -----------------------------------------
Total Dipole Moment    :      0.09253       0.83325      -2.41558
                        -----------------------------------------
Magnitude (a.u.)       :      2.55693
Magnitude (Debye)      :      6.49921

Rotational constants in cm-1:     0.993150     0.247328     0.211706
Rotational constants in MHz : 29773.882147  7414.712908  6346.774487

                             ****ORCA TERMINATED NORMALLY****
TOTAL RUN TIME: 0 days 0 hours 0 minutes 5 seconds 797 msec
