                         Program Version 4.2.0 -  RELEASE  -
|  1> #
|  2> # 143 M06-D3/Def2-TZVPPD
|  3> #
|  4> ! m06 d3zero def2-tzvppd def2/jk grid4 nofinalgrid
|  5>
|  6> *xyz 0 1
|  7> H          1.52165        0.00105        0.54476
|  8> C         -0.07322       -0.00002       -0.82132
|  9> C         -0.09157        0.00017        1.71374
| 10> H          0.24008        0.90261       -1.36729
| 11> N          0.49648       -0.00048        0.54416
| 12> H          0.26500       -0.88652       -1.37867
| 13> H         -1.19216       -0.00126        1.49873
| 14> H         -1.16627       -0.01555       -0.73412
| 15> *
| 16>
| 17> %maxcore 5000
| 18>
| 19> %pal
| 20> nprocs = 24
| 21> end
| 22>
| 23>
| 24>                          ****END OF INPUT****

CARTESIAN COORDINATES (ANGSTROEM)
---------------------------------
  H      1.521650    0.001050    0.544760
  C     -0.073220   -0.000020   -0.821320
  C     -0.091570    0.000170    1.713740
  H      0.240080    0.902610   -1.367290
  N      0.496480   -0.000480    0.544160
  H      0.265000   -0.886520   -1.378670
  H     -1.192160   -0.001260    1.498730
  H     -1.166270   -0.015550   -0.734120

 Total Charge           Charge          ....    0
 Multiplicity           Mult            ....    1
 Number of Electrons    NEL             ....   24
 Basis Dimension        Dim             ....  196

ORBITAL ENERGIES
----------------

  NO   OCC          E(Eh)            E(eV)
   0   2.0000     -14.442720      -393.0064
   1   2.0000     -10.283989      -279.8416
   2   2.0000     -10.245542      -278.7954
   3   2.0000      -0.963571       -26.2201
   4   2.0000      -0.736244       -20.0342
   5   2.0000      -0.633423       -17.2363
   6   2.0000      -0.506945       -13.7947
   7   2.0000      -0.471042       -12.8177
   8   2.0000      -0.447997       -12.1906
   9   2.0000      -0.410509       -11.1705
  10   2.0000      -0.340508        -9.2657
  11   2.0000      -0.218140        -5.9359
  12   0.0000      -0.026445        -0.7196
  13   0.0000      -0.009473        -0.2578
  14   0.0000       0.000755         0.0205
  15   0.0000       0.020961         0.5704
  16   0.0000       0.037289         1.0147

MULLIKEN ATOMIC CHARGES
-----------------------
   0 H :    0.074625
   1 C :   -1.082297
   2 C :   -0.137629
   3 H :    0.400260
   4 N :   -0.315795
   5 H :    0.400055
   6 H :    0.208031
   7 H :    0.452749
Sum of atomic charges:   -0.0000000

LOEWDIN ATOMIC CHARGES
----------------------
   0 H :   -0.059804
   1 C :    0.135544
   2 C :    0.088315
   3 H :   -0.003140
   4 N :   -0.044078
   5 H :   -0.003219
   6 H :   -0.108059
   7 H :   -0.005558

  Mayer bond orders larger than 0.100000
B(  0-H ,  4-N ) :   1.1638 B(  1-C ,  3-H ) :   0.8688 B(  1-C ,  4-N ) :   0.5864
B(  1-C ,  5-H ) :   0.8705 B(  1-C ,  7-H ) :   0.8055 B(  2-C ,  4-N ) :   1.5830
B(  2-C ,  6-H ) :   0.7999

Dispersion correction           -0.000170570
FINAL SINGLE POINT ENERGY      -133.836174703593

DIPOLE MOMENT
-------------
                                X             Y             Z
Electronic contribution:      0.94113      -0.00061       1.74670
Nuclear contribution   :     -0.81448       0.00081      -3.18683
                        -----------------------------------------
Total Dipole Moment    :      0.12665       0.00020      -1.44013
                        -----------------------------------------
Magnitude (a.u.)       :      1.44569
Magnitude (Debye)      :      3.67464

Rotational constants in cm-1:     1.686117     0.341111     0.300010
Rotational constants in MHz : 50548.520534 10226.261318  8994.065933

                             ****ORCA TERMINATED NORMALLY****
TOTAL RUN TIME: 0 days 0 hours 0 minutes 5 seconds 918 msec
