                         Program Version 4.2.0 -  RELEASE  -
|  1> #
|  2> # 167_li M06-D3/Def2-TZVPPD
|  3> #
|  4> ! m06 d3zero def2-tzvppd def2/jk grid4 nofinalgrid
|  5>
|  6> *xyz 0 1
|  7> Li         0.00000        0.00000        0.80730
|  8> H          0.00000        0.00000       -0.80730
|  9> *
| 10>
| 11> %maxcore 5000
| 12>
| 13> %pal
| 14> nprocs = 24
| 15> end
| 16>
| 17>
| 18>                          ****END OF INPUT****

CARTESIAN COORDINATES (ANGSTROEM)
---------------------------------
  Li     0.000000    0.000000    0.807300
  H      0.000000    0.000000   -0.807300

 Total Charge           Charge          ....    0
 Multiplicity           Mult            ....    1
 Number of Electrons    NEL             ....    4
 Basis Dimension        Dim             ....   39

ORBITAL ENERGIES
----------------

  NO   OCC          E(Eh)            E(eV)
   0   2.0000      -2.028971       -55.2111
   1   2.0000      -0.196696        -5.3524
   2   0.0000      -0.075209        -2.0466
   3   0.0000      -0.026003        -0.7076
   4   0.0000      -0.026003        -0.7076
   5   0.0000       0.007769         0.2114
   6   0.0000       0.029854         0.8124

MULLIKEN ATOMIC CHARGES
-----------------------
   0 Li:    0.687216
   1 H :   -0.687216
Sum of atomic charges:    0.0000000

LOEWDIN ATOMIC CHARGES
----------------------
   0 Li:    0.305752
   1 H :   -0.305752

  Mayer bond orders larger than 0.100000
B(  0-Li,  1-H ) :   0.5270

Dispersion correction           -0.000000016
FINAL SINGLE POINT ENERGY        -8.078240714948

DIPOLE MOMENT
-------------
                                X             Y             Z
Electronic contribution:      0.00000      -0.00000       3.77944
Nuclear contribution   :      0.00000       0.00000      -1.50351
                        -----------------------------------------
Total Dipole Moment    :      0.00000      -0.00000       2.27594
                        -----------------------------------------
Magnitude (a.u.)       :      2.27594
Magnitude (Debye)      :      5.78497

Rotational constants in cm-1:     0.000000     7.346778     7.346778
Rotational constants in MHz :     0.000000 220250.867747 220250.867747

                             ****ORCA TERMINATED NORMALLY****
TOTAL RUN TIME: 0 days 0 hours 0 minutes 2 seconds 562 msec
