                         Program Version 4.2.0 -  RELEASE  -
|  1> #
|  2> # 168_be M06-D3/Def2-TZVPPD
|  3> #
|  4> ! m06 d3zero def2-tzvppd def2/jk grid4 nofinalgrid
|  5>
|  6> *xyz 0 1
|  7> Be         0.00000        0.00000        0.00000
|  8> H          0.00000        0.00000       -1.34402
|  9> H          0.00000        0.00000        1.34402
| 10> *
| 11>
| 12> %maxcore 5000
| 13>
| 14> %pal
| 15> nprocs = 24
| 16> end
| 17>
| 18>
| 19>                          ****END OF INPUT****

CARTESIAN COORDINATES (ANGSTROEM)
---------------------------------
  Be     0.000000    0.000000    0.000000
  H      0.000000    0.000000   -1.344020
  H      0.000000    0.000000    1.344020

 Total Charge           Charge          ....    0
 Multiplicity           Mult            ....    1
 Number of Electrons    NEL             ....    6
 Basis Dimension        Dim             ....   56

ORBITAL ENERGIES
----------------

  NO   OCC          E(Eh)            E(eV)
   0   2.0000      -4.066796      -110.6631
   1   2.0000      -0.356055        -9.6887
   2   2.0000      -0.324580        -8.8323
   3   0.0000      -0.041052        -1.1171
   4   0.0000      -0.041051        -1.1171
   5   0.0000      -0.015647        -0.4258
   6   0.0000      -0.001917        -0.0522
   7   0.0000       0.037161         1.0112

MULLIKEN ATOMIC CHARGES
-----------------------
   0 Be:    0.627026
   1 H :   -0.313513
   2 H :   -0.313513
Sum of atomic charges:   -0.0000000

LOEWDIN ATOMIC CHARGES
----------------------
   0 Be:    0.377170
   1 H :   -0.188585
   2 H :   -0.188585

  Mayer bond orders larger than 0.100000
B(  0-Be,  1-H ) :   0.8008 B(  0-Be,  2-H ) :   0.8008 B(  1-H ,  2-H ) :   0.2937

Dispersion correction           -0.000010332
FINAL SINGLE POINT ENERGY       -15.907542996057

DIPOLE MOMENT
-------------
                                X             Y             Z
Electronic contribution:      0.00000      -0.00000       0.00000
Nuclear contribution   :      0.00000       0.00000       0.00000
                        -----------------------------------------
Total Dipole Moment    :      0.00000      -0.00000       0.00000
                        -----------------------------------------
Magnitude (a.u.)       :      0.00000
Magnitude (Debye)      :      0.00000

Rotational constants in cm-1:     0.000000     4.629082     4.629082
Rotational constants in MHz :     0.000000 138776.398767 138776.398767

                             ****ORCA TERMINATED NORMALLY****
TOTAL RUN TIME: 0 days 0 hours 0 minutes 2 seconds 868 msec
