                         Program Version 4.2.0 -  RELEASE  -
|  1> #
|  2> # 169_b M06-D3/Def2-TZVPPD
|  3> #
|  4> ! m06 d3zero def2-tzvppd def2/jk grid4 nofinalgrid
|  5>
|  6> *xyz 0 1
|  7> B          0.00000        0.00000        0.00000
|  8> H          0.60006        1.03933        0.00000
|  9> H          0.60006       -1.03933        0.00000
| 10> H         -1.20012        0.00000        0.00000
| 11> *
| 12>
| 13> %maxcore 5000
| 14>
| 15> %pal
| 16> nprocs = 24
| 17> end
| 18>
| 19>
| 20>                          ****END OF INPUT****

CARTESIAN COORDINATES (ANGSTROEM)
---------------------------------
  B      0.000000    0.000000    0.000000
  H      0.600060    1.039330    0.000000
  H      0.600060   -1.039330    0.000000
  H     -1.200120    0.000000    0.000000

 Total Charge           Charge          ....    0
 Multiplicity           Mult            ....    1
 Number of Electrons    NEL             ....    8
 Basis Dimension        Dim             ....   88

ORBITAL ENERGIES
----------------

  NO   OCC          E(Eh)            E(eV)
   0   2.0000      -6.826809      -185.7669
   1   2.0000      -0.522746       -14.2247
   2   2.0000      -0.364951        -9.9308
   3   2.0000      -0.364912        -9.9297
   4   0.0000      -0.072636        -1.9765
   5   0.0000      -0.024253        -0.6600
   6   0.0000       0.037042         1.0080
   7   0.0000       0.037069         1.0087
   8   0.0000       0.053309         1.4506

MULLIKEN ATOMIC CHARGES
-----------------------
   0 B :   -0.704071
   1 H :    0.233577
   2 H :    0.233577
   3 H :    0.236918
Sum of atomic charges:   -0.0000000

LOEWDIN ATOMIC CHARGES
----------------------
   0 B :    0.245084
   1 H :   -0.081788
   2 H :   -0.081788
   3 H :   -0.081508

  Mayer bond orders larger than 0.100000
B(  0-B ,  1-H ) :   0.9266 B(  0-B ,  2-H ) :   0.9266 B(  0-B ,  3-H ) :   0.9259

Dispersion correction           -0.000004179
FINAL SINGLE POINT ENERGY       -26.595158875215

DIPOLE MOMENT
-------------
                                X             Y             Z
Electronic contribution:     -0.00009      -0.00000      -0.00000
Nuclear contribution   :      0.00000       0.00000       0.00000
                        -----------------------------------------
Total Dipole Moment    :     -0.00009      -0.00000      -0.00000
                        -----------------------------------------
Magnitude (a.u.)       :      0.00009
Magnitude (Debye)      :      0.00022

Rotational constants in cm-1:     7.741042     7.740977     3.870505
Rotational constants in MHz : 232070.613118 232068.644801 116034.814478

                             ****ORCA TERMINATED NORMALLY****
TOTAL RUN TIME: 0 days 0 hours 0 minutes 2 seconds 833 msec
