                         Program Version 4.2.0 -  RELEASE  -
|  1> #
|  2> # 172_o M06-D3/Def2-TZVPPD
|  3> #
|  4> ! m06 d3zero def2-tzvppd def2/jk grid4 nofinalgrid
|  5>
|  6> *xyz 0 3
|  7> O          0.00000        0.00000        0.61122
|  8> O          0.00000        0.00000       -0.61122
|  9> *
| 10>
| 11> %maxcore 5000
| 12>
| 13> %pal
| 14> nprocs = 24
| 15> end
| 16>
| 17>
| 18>                          ****END OF INPUT****

CARTESIAN COORDINATES (ANGSTROEM)
---------------------------------
  O      0.000000    0.000000    0.611220
  O      0.000000    0.000000   -0.611220

 Total Charge           Charge          ....    0
 Multiplicity           Mult            ....    3
 Number of Electrons    NEL             ....   16
 Basis Dimension        Dim             ....   80

ORBITAL ENERGIES
----------------
                 SPIN UP ORBITALS
  NO   OCC          E(Eh)            E(eV)
   0   1.0000     -19.376581      -527.2636
   1   1.0000     -19.376413      -527.2590
   2   1.0000      -1.328618       -36.1535
   3   1.0000      -0.870088       -23.6763
   4   1.0000      -0.579021       -15.7560
   5   1.0000      -0.578229       -15.7344
   6   1.0000      -0.578229       -15.7344
   7   1.0000      -0.328192        -8.9305
   8   1.0000      -0.328192        -8.9305
   9   0.0000       0.001054         0.0287
  10   0.0000       0.019432         0.5288
  11   0.0000       0.026771         0.7285
  12   0.0000       0.026771         0.7285
  13   0.0000       0.068050         1.8517

                 SPIN DOWN ORBITALS
  NO   OCC          E(Eh)            E(eV)
   0   1.0000     -19.353661      -526.6399
   1   1.0000     -19.353320      -526.6306
   2   1.0000      -1.259275       -34.2666
   3   1.0000      -0.782904       -21.3039
   4   1.0000      -0.520172       -14.1546
   5   1.0000      -0.479776       -13.0554
   6   1.0000      -0.479776       -13.0554
   7   0.0000      -0.119106        -3.2410
   8   0.0000      -0.119106        -3.2410
   9   0.0000       0.015054         0.4096
  10   0.0000       0.031244         0.8502
  11   0.0000       0.038105         1.0369

MULLIKEN ATOMIC CHARGES AND SPIN POPULATIONS
--------------------------------------------
   0 O :    0.000000    1.000001
   1 O :   -0.000000    0.999999
Sum of atomic charges         :   -0.0000000

LOEWDIN ATOMIC CHARGES AND SPIN POPULATIONS
-------------------------------------------
   0 O :    0.000000    1.000000
   1 O :   -0.000000    1.000000

  Mayer bond orders larger than 0.100000
B(  0-O ,  1-O ) :   1.5148

Dispersion correction           -0.000000014
FINAL SINGLE POINT ENERGY      -150.313357209010

DIPOLE MOMENT
-------------
                                X             Y             Z
Electronic contribution:     -0.00000       0.00000      -0.00000
Nuclear contribution   :      0.00000       0.00000       0.00000
                        -----------------------------------------
Total Dipole Moment    :     -0.00000       0.00000      -0.00000
                        -----------------------------------------
Magnitude (a.u.)       :      0.00000
Magnitude (Debye)      :      0.00000

Rotational constants in cm-1:     0.000000     1.410194     1.410194
Rotational constants in MHz :     0.000000 42276.561443 42276.561443

                             ****ORCA TERMINATED NORMALLY****
TOTAL RUN TIME: 0 days 0 hours 0 minutes 3 seconds 221 msec
