                         Program Version 4.2.0 -  RELEASE  -
|  1> #
|  2> # 173_f M06-D3/Def2-TZVPPD
|  3> #
|  4> ! m06 d3zero def2-tzvppd def2/jk grid4 nofinalgrid
|  5>
|  6> *xyz 0 1
|  7> F          0.00000        0.00000        0.71109
|  8> F          0.00000        0.00000       -0.71109
|  9> *
| 10>
| 11> %maxcore 5000
| 12>
| 13> %pal
| 14> nprocs = 24
| 15> end
| 16>
| 17>
| 18>                          ****END OF INPUT****

CARTESIAN COORDINATES (ANGSTROEM)
---------------------------------
  F      0.000000    0.000000    0.711090
  F      0.000000    0.000000   -0.711090

 Total Charge           Charge          ....    0
 Multiplicity           Mult            ....    1
 Number of Electrons    NEL             ....   18
 Basis Dimension        Dim             ....   80

ORBITAL ENERGIES
----------------

  NO   OCC          E(Eh)            E(eV)
   0   2.0000     -24.893546      -677.3878
   1   2.0000     -24.893530      -677.3874
   2   2.0000      -1.377384       -37.4805
   3   2.0000      -1.145701       -31.1761
   4   2.0000      -0.622565       -16.9408
   5   2.0000      -0.560274       -15.2458
   6   2.0000      -0.560274       -15.2458
   7   2.0000      -0.436636       -11.8815
   8   2.0000      -0.436636       -11.8815
   9   0.0000      -0.154626        -4.2076
  10   0.0000       0.025638         0.6976
  11   0.0000       0.048464         1.3188
  12   0.0000       0.049880         1.3573
  13   0.0000       0.049881         1.3573

MULLIKEN ATOMIC CHARGES
-----------------------
   0 F :    0.000000
   1 F :   -0.000000
Sum of atomic charges:   -0.0000000

LOEWDIN ATOMIC CHARGES
----------------------
   0 F :    0.000000
   1 F :   -0.000000

  Mayer bond orders larger than 0.100000
B(  0-F ,  1-F ) :   0.8726

Dispersion correction           -0.000000074
FINAL SINGLE POINT ENERGY      -199.522892498582

DIPOLE MOMENT
-------------
                                X             Y             Z
Electronic contribution:      0.00000       0.00000       0.00000
Nuclear contribution   :      0.00000       0.00000       0.00000
                        -----------------------------------------
Total Dipole Moment    :      0.00000       0.00000       0.00000
                        -----------------------------------------
Magnitude (a.u.)       :      0.00000
Magnitude (Debye)      :      0.00000

Rotational constants in cm-1:     0.000000     0.877425     0.877425
Rotational constants in MHz :     0.000000 26304.532186 26304.532186

                             ****ORCA TERMINATED NORMALLY****
TOTAL RUN TIME: 0 days 0 hours 0 minutes 2 seconds 644 msec
