                         Program Version 4.2.0 -  RELEASE  -
|  1> #
|  2> # 174_na M06-D3/Def2-TZVPPD
|  3> #
|  4> ! m06 d3zero def2-tzvppd def2/jk grid4 nofinalgrid
|  5>
|  6> *xyz 0 1
|  7> Na         0.00000        0.00000        0.94863
|  8> H          0.00000        0.00000       -0.94863
|  9> *
| 10>
| 11> %maxcore 5000
| 12>
| 13> %pal
| 14> nprocs = 24
| 15> end
| 16>
| 17>
| 18>                          ****END OF INPUT****

CARTESIAN COORDINATES (ANGSTROEM)
---------------------------------
  Na     0.000000    0.000000    0.948630
  H      0.000000    0.000000   -0.948630

 Total Charge           Charge          ....    0
 Multiplicity           Mult            ....    1
 Number of Electrons    NEL             ....   12
 Basis Dimension        Dim             ....   52

ORBITAL ENERGIES
----------------

  NO   OCC          E(Eh)            E(eV)
   0   2.0000     -38.583394     -1049.9075
   1   2.0000      -2.277897       -61.9847
   2   2.0000      -1.181020       -32.1372
   3   2.0000      -1.181020       -32.1372
   4   2.0000      -1.177538       -32.0424
   5   2.0000      -0.176654        -4.8070
   6   0.0000      -0.052840        -1.4378
   7   0.0000      -0.022796        -0.6203
   8   0.0000      -0.022796        -0.6203
   9   0.0000      -0.002686        -0.0731
  10   0.0000       0.017270         0.4699

MULLIKEN ATOMIC CHARGES
-----------------------
   0 Na:    0.533165
   1 H :   -0.533165
Sum of atomic charges:   -0.0000000

LOEWDIN ATOMIC CHARGES
----------------------
   0 Na:    0.313795
   1 H :   -0.313795

  Mayer bond orders larger than 0.100000
B(  0-Na,  1-H ) :   0.7176

Dispersion correction           -0.000000057
FINAL SINGLE POINT ENERGY      -162.836769873356

DIPOLE MOMENT
-------------
                                X             Y             Z
Electronic contribution:      0.00000       0.00000       4.42491
Nuclear contribution   :      0.00000       0.00000      -1.77816
                        -----------------------------------------
Total Dipole Moment    :      0.00000       0.00000       2.64675
                        -----------------------------------------
Magnitude (a.u.)       :      2.64675
Magnitude (Debye)      :      6.72751

Rotational constants in cm-1:     0.000000     4.849743     4.849743
Rotational constants in MHz :     0.000000 145391.644375 145391.644375

                             ****ORCA TERMINATED NORMALLY****
TOTAL RUN TIME: 0 days 0 hours 0 minutes 3 seconds 364 msec
