                         Program Version 4.2.0 -  RELEASE  -
|  1> #
|  2> # 176_al M06-D3/Def2-TZVPPD
|  3> #
|  4> ! m06 d3zero def2-tzvppd def2/jk grid4 nofinalgrid
|  5>
|  6> *xyz 0 1
|  7> Al         0.00000        0.00000        0.00000
|  8> H          0.80046       -1.38644        0.00000
|  9> H          0.80046        1.38644        0.00000
| 10> H         -1.60093        0.00000        0.00000
| 11> *
| 12>
| 13> %maxcore 5000
| 14>
| 15> %pal
| 16> nprocs = 24
| 17> end
| 18>
| 19>
| 20>                          ****END OF INPUT****

CARTESIAN COORDINATES (ANGSTROEM)
---------------------------------
  Al     0.000000    0.000000    0.000000
  H      0.800460   -1.386440    0.000000
  H      0.800460    1.386440    0.000000
  H     -1.600930    0.000000    0.000000

 Total Charge           Charge          ....    0
 Multiplicity           Mult            ....    1
 Number of Electrons    NEL             ....   16
 Basis Dimension        Dim             ....   99

ORBITAL ENERGIES
----------------

  NO   OCC          E(Eh)            E(eV)
   0   2.0000     -56.159287     -1528.1719
   1   2.0000      -4.209479      -114.5457
   2   2.0000      -2.734075       -74.3980
   3   2.0000      -2.724934       -74.1492
   4   2.0000      -2.724932       -74.1492
   5   2.0000      -0.428461       -11.6590
   6   2.0000      -0.313082        -8.5194
   7   2.0000      -0.313077        -8.5192
   8   0.0000      -0.067692        -1.8420
   9   0.0000      -0.023308        -0.6342
  10   0.0000       0.008014         0.2181
  11   0.0000       0.018836         0.5125
  12   0.0000       0.018877         0.5137

MULLIKEN ATOMIC CHARGES
-----------------------
   0 Al:    0.692081
   1 H :   -0.230791
   2 H :   -0.230791
   3 H :   -0.230499
Sum of atomic charges:   -0.0000000

LOEWDIN ATOMIC CHARGES
----------------------
   0 Al:    0.641455
   1 H :   -0.213827
   2 H :   -0.213827
   3 H :   -0.213802

  Mayer bond orders larger than 0.100000
B(  0-Al,  1-H ) :   0.9233 B(  0-Al,  2-H ) :   0.9233 B(  0-Al,  3-H ) :   0.9238

Dispersion correction           -0.000038294
FINAL SINGLE POINT ENERGY      -244.191386331729

DIPOLE MOMENT
-------------
                                X             Y             Z
Electronic contribution:      0.00001       0.00000      -0.00000
Nuclear contribution   :     -0.00001       0.00000       0.00000
                        -----------------------------------------
Total Dipole Moment    :      0.00001       0.00000      -0.00000
                        -----------------------------------------
Magnitude (a.u.)       :      0.00001
Magnitude (Debye)      :      0.00001

Rotational constants in cm-1:     4.350150     4.350130     2.175070
Rotational constants in MHz : 130414.210579 130413.615544 65206.956531

                             ****ORCA TERMINATED NORMALLY****
TOTAL RUN TIME: 0 days 0 hours 0 minutes 2 seconds 867 msec
