                         Program Version 4.2.0 -  RELEASE  -
|  1> #
|  2> # 177_si M06-D3/Def2-TZVPPD
|  3> #
|  4> ! m06 d3zero def2-tzvppd def2/jk grid4 nofinalgrid
|  5>
|  6> *xyz 0 1
|  7> Si         0.00000        0.00000        0.00000
|  8> H         -0.86552        0.86552        0.86552
|  9> H          0.86552       -0.86552        0.86552
| 10> H         -0.86552       -0.86552       -0.86552
| 11> H          0.86552        0.86552       -0.86552
| 12> *
| 13>
| 14> %maxcore 5000
| 15>
| 16> %pal
| 17> nprocs = 24
| 18> end
| 19>
| 20>
| 21>                          ****END OF INPUT****

CARTESIAN COORDINATES (ANGSTROEM)
---------------------------------
  Si     0.000000    0.000000    0.000000
  H     -0.865520    0.865520    0.865520
  H      0.865520   -0.865520    0.865520
  H     -0.865520   -0.865520   -0.865520
  H      0.865520    0.865520   -0.865520

 Total Charge           Charge          ....    0
 Multiplicity           Mult            ....    1
 Number of Electrons    NEL             ....   18
 Basis Dimension        Dim             ....  116

ORBITAL ENERGIES
----------------

  NO   OCC          E(Eh)            E(eV)
   0   2.0000     -66.261800     -1803.0752
   1   2.0000      -5.367596      -146.0597
   2   2.0000      -3.688312      -100.3641
   3   2.0000      -3.688312      -100.3641
   4   2.0000      -3.688312      -100.3641
   5   2.0000      -0.554291       -15.0830
   6   2.0000      -0.359098        -9.7716
   7   2.0000      -0.359098        -9.7716
   8   2.0000      -0.359098        -9.7716
   9   0.0000      -0.014479        -0.3940
  10   0.0000       0.022761         0.6194
  11   0.0000       0.022762         0.6194
  12   0.0000       0.022762         0.6194
  13   0.0000       0.046776         1.2728

MULLIKEN ATOMIC CHARGES
-----------------------
   0 Si:    0.064956
   1 H :   -0.016239
   2 H :   -0.016239
   3 H :   -0.016239
   4 H :   -0.016239
Sum of atomic charges:   -0.0000000

LOEWDIN ATOMIC CHARGES
----------------------
   0 Si:    0.653223
   1 H :   -0.163306
   2 H :   -0.163306
   3 H :   -0.163306
   4 H :   -0.163306

  Mayer bond orders larger than 0.100000
B(  0-Si,  1-H ) :   0.9560 B(  0-Si,  2-H ) :   0.9560 B(  0-Si,  3-H ) :   0.9560
B(  0-Si,  4-H ) :   0.9560

Dispersion correction           -0.000030385
FINAL SINGLE POINT ENERGY      -291.875877358904

DIPOLE MOMENT
-------------
                                X             Y             Z
Electronic contribution:      0.00000       0.00000       0.00000
Nuclear contribution   :      0.00000       0.00000       0.00000
                        -----------------------------------------
Total Dipole Moment    :      0.00000       0.00000       0.00000
                        -----------------------------------------
Magnitude (a.u.)       :      0.00000
Magnitude (Debye)      :      0.00000

Rotational constants in cm-1:     2.790565     2.790565     2.790565
Rotational constants in MHz : 83659.038574 83659.038574 83659.038574

                             ****ORCA TERMINATED NORMALLY****
TOTAL RUN TIME: 0 days 0 hours 0 minutes 3 seconds 471 msec
