                         Program Version 4.2.0 -  RELEASE  -
|  1> #
|  2> # 178_p M06-D3/Def2-TZVPPD
|  3> #
|  4> ! m06 d3zero def2-tzvppd def2/jk grid4 nofinalgrid
|  5>
|  6> *xyz 0 1
|  7> P          0.00000        0.00000        0.95949
|  8> P          0.00000        0.00000       -0.95949
|  9> *
| 10>
| 11> %maxcore 5000
| 12>
| 13> %pal
| 14> nprocs = 24
| 15> end
| 16>
| 17>
| 18>                          ****END OF INPUT****

CARTESIAN COORDINATES (ANGSTROEM)
---------------------------------
  P      0.000000    0.000000    0.959490
  P      0.000000    0.000000   -0.959490

 Total Charge           Charge          ....    0
 Multiplicity           Mult            ....    1
 Number of Electrons    NEL             ....   30
 Basis Dimension        Dim             ....   96

ORBITAL ENERGIES
----------------

  NO   OCC          E(Eh)            E(eV)
   0   2.0000     -77.244734     -2101.9361
   1   2.0000     -77.244701     -2101.9352
   2   2.0000      -6.670964      -181.5262
   3   2.0000      -6.670640      -181.5173
   4   2.0000      -4.791489      -130.3830
   5   2.0000      -4.791489      -130.3830
   6   2.0000      -4.791349      -130.3792
   7   2.0000      -4.791349      -130.3792
   8   2.0000      -4.788492      -130.3015
   9   2.0000      -4.786872      -130.2574
  10   2.0000      -0.683674       -18.6037
  11   2.0000      -0.480955       -13.0875
  12   2.0000      -0.297354        -8.0914
  13   2.0000      -0.290223        -7.8974
  14   2.0000      -0.290223        -7.8974
  15   0.0000      -0.092934        -2.5289
  16   0.0000      -0.092934        -2.5289
  17   0.0000       0.003150         0.0857
  18   0.0000       0.028463         0.7745
  19   0.0000       0.086206         2.3458

MULLIKEN ATOMIC CHARGES
-----------------------
   0 P :   -0.000001
   1 P :    0.000001
Sum of atomic charges:   -0.0000000

LOEWDIN ATOMIC CHARGES
----------------------
   0 P :    0.000000
   1 P :   -0.000000

  Mayer bond orders larger than 0.100000
B(  0-P ,  1-P ) :   2.5977

Dispersion correction           -0.000000057
FINAL SINGLE POINT ENERGY      -682.677874461126

DIPOLE MOMENT
-------------
                                X             Y             Z
Electronic contribution:     -0.00000      -0.00000       0.00000
Nuclear contribution   :      0.00000       0.00000       0.00000
                        -----------------------------------------
Total Dipole Moment    :     -0.00000      -0.00000       0.00000
                        -----------------------------------------
Magnitude (a.u.)       :      0.00000
Magnitude (Debye)      :      0.00000

Rotational constants in cm-1:     0.000000     0.295589     0.295589
Rotational constants in MHz :     0.000000  8861.544214  8861.544214

                             ****ORCA TERMINATED NORMALLY****
TOTAL RUN TIME: 0 days 0 hours 0 minutes 2 seconds 907 msec
