                         Program Version 4.2.0 -  RELEASE  -
|  1> #
|  2> # 179_s M06-D3/Def2-TZVPPD
|  3> #
|  4> ! m06 d3zero def2-tzvppd def2/jk grid4 nofinalgrid
|  5>
|  6> *xyz 0 3
|  7> S          0.00000        0.00000        0.96937
|  8> S          0.00000        0.00000       -0.96937
|  9> *
| 10>
| 11> %maxcore 5000
| 12>
| 13> %pal
| 14> nprocs = 24
| 15> end
| 16>
| 17>
| 18>                          ****END OF INPUT****

CARTESIAN COORDINATES (ANGSTROEM)
---------------------------------
  S      0.000000    0.000000    0.969370
  S      0.000000    0.000000   -0.969370

 Total Charge           Charge          ....    0
 Multiplicity           Mult            ....    3
 Number of Electrons    NEL             ....   32
 Basis Dimension        Dim             ....  102

ORBITAL ENERGIES
----------------
                 SPIN UP ORBITALS
  NO   OCC          E(Eh)            E(eV)
   0   1.0000     -89.085607     -2424.1426
   1   1.0000     -89.085593     -2424.1422
   2   1.0000      -8.100242      -220.4188
   3   1.0000      -8.100130      -220.4157
   4   1.0000      -6.017466      -163.7436
   5   1.0000      -6.017134      -163.7345
   6   1.0000      -6.017134      -163.7345
   7   1.0000      -6.017104      -163.7337
   8   1.0000      -6.017104      -163.7337
   9   1.0000      -6.016914      -163.7286
  10   1.0000      -0.847263       -23.0552
  11   1.0000      -0.652506       -17.7556
  12   1.0000      -0.408834       -11.1249
  13   1.0000      -0.381713       -10.3869
  14   1.0000      -0.381713       -10.3869
  15   1.0000      -0.253102        -6.8873
  16   1.0000      -0.253102        -6.8873
  17   0.0000      -0.039824        -1.0837
  18   0.0000      -0.004407        -0.1199
  19   0.0000      -0.004407        -0.1199
  20   0.0000       0.000871         0.0237
  21   0.0000       0.009761         0.2656

                 SPIN DOWN ORBITALS
  NO   OCC          E(Eh)            E(eV)
   0   1.0000     -89.080482     -2424.0031
   1   1.0000     -89.080469     -2424.0028
   2   1.0000      -8.093757      -220.2423
   3   1.0000      -8.093610      -220.2383
   4   1.0000      -6.012575      -163.6105
   5   1.0000      -6.012045      -163.5961
   6   1.0000      -6.005224      -163.4105
   7   1.0000      -6.005224      -163.4105
   8   1.0000      -6.005182      -163.4093
   9   1.0000      -6.005182      -163.4093
  10   1.0000      -0.811967       -22.0947
  11   1.0000      -0.602495       -16.3947
  12   1.0000      -0.379200       -10.3186
  13   1.0000      -0.335016        -9.1162
  14   1.0000      -0.335016        -9.1162
  15   0.0000      -0.139452        -3.7947
  16   0.0000      -0.139452        -3.7947
  17   0.0000      -0.021509        -0.5853
  18   0.0000       0.010463         0.2847
  19   0.0000       0.010463         0.2847

MULLIKEN ATOMIC CHARGES AND SPIN POPULATIONS
--------------------------------------------
   0 S :    0.000000    1.000000
   1 S :   -0.000000    1.000000
Sum of atomic charges         :   -0.0000000

LOEWDIN ATOMIC CHARGES AND SPIN POPULATIONS
-------------------------------------------
   0 S :    0.000000    1.000000
   1 S :   -0.000000    1.000000

  Mayer bond orders larger than 0.100000
B(  0-S ,  1-S ) :   1.9419

Dispersion correction           -0.000000098
FINAL SINGLE POINT ENERGY      -796.351578996830

DIPOLE MOMENT
-------------
                                X             Y             Z
Electronic contribution:      0.00000      -0.00000       0.00000
Nuclear contribution   :      0.00000       0.00000       0.00000
                        -----------------------------------------
Total Dipole Moment    :      0.00000      -0.00000       0.00000
                        -----------------------------------------
Magnitude (a.u.)       :      0.00000
Magnitude (Debye)      :      0.00000

Rotational constants in cm-1:     0.000000     0.279785     0.279785
Rotational constants in MHz :     0.000000  8387.739618  8387.739618

                             ****ORCA TERMINATED NORMALLY****
TOTAL RUN TIME: 0 days 0 hours 0 minutes 2 seconds 911 msec
