                         Program Version 4.2.0 -  RELEASE  -
|  1> #
|  2> # 180_cl M06-D3/Def2-TZVPPD
|  3> #
|  4> ! m06 d3zero def2-tzvppd def2/jk grid4 nofinalgrid
|  5>
|  6> *xyz 0 1
|  7> Cl         0.00000        0.00000        1.02399
|  8> Cl         0.00000        0.00000       -1.02399
|  9> *
| 10>
| 11> %maxcore 5000
| 12>
| 13> %pal
| 14> nprocs = 24
| 15> end
| 16>
| 17>
| 18>                          ****END OF INPUT****

CARTESIAN COORDINATES (ANGSTROEM)
---------------------------------
  Cl     0.000000    0.000000    1.023990
  Cl     0.000000    0.000000   -1.023990

 Total Charge           Charge          ....    0
 Multiplicity           Mult            ....    1
 Number of Electrons    NEL             ....   34
 Basis Dimension        Dim             ....  102

ORBITAL ENERGIES
----------------

  NO   OCC          E(Eh)            E(eV)
   0   2.0000    -101.773549     -2769.3991
   1   2.0000    -101.773540     -2769.3988
   2   2.0000      -9.644928      -262.4518
   3   2.0000      -9.644898      -262.4510
   4   2.0000      -7.357855      -200.2174
   5   2.0000      -7.357754      -200.2147
   6   2.0000      -7.343659      -199.8311
   7   2.0000      -7.343659      -199.8311
   8   2.0000      -7.343657      -199.8311
   9   2.0000      -7.343657      -199.8311
  10   2.0000      -0.944977       -25.7141
  11   2.0000      -0.794951       -21.6317
  12   2.0000      -0.479565       -13.0496
  13   2.0000      -0.413772       -11.2593
  14   2.0000      -0.413772       -11.2593
  15   2.0000      -0.320103        -8.7104
  16   2.0000      -0.320103        -8.7104
  17   0.0000      -0.132265        -3.5991
  18   0.0000      -0.002698        -0.0734
  19   0.0000       0.010577         0.2878
  20   0.0000       0.010577         0.2878
  21   0.0000       0.016887         0.4595

MULLIKEN ATOMIC CHARGES
-----------------------
   0 Cl:    0.000000
   1 Cl:   -0.000000
Sum of atomic charges:   -0.0000000

LOEWDIN ATOMIC CHARGES
----------------------
   0 Cl:    0.000000
   1 Cl:   -0.000000

  Mayer bond orders larger than 0.100000
B(  0-Cl,  1-Cl) :   1.0289

Dispersion correction           -0.000000258
FINAL SINGLE POINT ENERGY      -920.358897417387

DIPOLE MOMENT
-------------
                                X             Y             Z
Electronic contribution:     -0.00000       0.00000      -0.00000
Nuclear contribution   :      0.00000       0.00000       0.00000
                        -----------------------------------------
Total Dipole Moment    :     -0.00000       0.00000      -0.00000
                        -----------------------------------------
Magnitude (a.u.)       :      0.00000
Magnitude (Debye)      :      0.00000

Rotational constants in cm-1:     0.000000     0.226737     0.226737
Rotational constants in MHz :     0.000000  6797.405627  6797.405627

                             ****ORCA TERMINATED NORMALLY****
TOTAL RUN TIME: 0 days 0 hours 0 minutes 3 seconds 178 msec
