                         Program Version 4.2.0 -  RELEASE  -
|  1> #
|  2> # 048 ri-B2PLYP-D3BJ/Def2-TZVPPD
|  3> #
|  4> ! rijk ri-b2plyp d3bj def2-tzvppd def2/jk def2-tzvppd/c grid4 nofinalgrid
|  5>
|  6> *xyz 0 1
|  7> O          0.75742       -0.00510        0.75514
|  8> H         -1.01794        1.02757        1.02184
|  9> H         -0.96093       -0.60735        1.74144
| 10> C         -0.64191        0.00049        0.87802
| 11> H          0.38038        0.00572       -2.17342
| 12> H          0.12624       -0.00672       -2.88156
| 13> Al         2.47079       -0.00043        0.68709
| 14> H         -1.11404       -0.41418       -0.02857
| 15> *
| 16>
| 17> %maxcore 5000
| 18>
| 19> %pal
| 20> nprocs = 24
| 21> end
| 22>
| 23>
| 24>                          ****END OF INPUT****

CARTESIAN COORDINATES (ANGSTROEM)
---------------------------------
  O      0.757420   -0.005100    0.755140
  H     -1.017940    1.027570    1.021840
  H     -0.960930   -0.607350    1.741440
  C     -0.641910    0.000490    0.878020
  H      0.380380    0.005720   -2.173420
  H      0.126240   -0.006720   -2.881560
  Al     2.470790   -0.000430    0.687090
  H     -1.114040   -0.414180   -0.028570

 Total Charge           Charge          ....    0
 Multiplicity           Mult            ....    1
 Number of Electrons    NEL             ....   32
 Basis Dimension        Dim             ....  210

ORBITAL ENERGIES
----------------

  NO   OCC          E(Eh)            E(eV)
   0   2.0000     -57.046747     -1552.3209
   1   2.0000     -19.703476      -536.1588
   2   2.0000     -10.659291      -290.0541
   3   2.0000      -4.438093      -120.7666
   4   2.0000      -2.891049       -78.6694
   5   2.0000      -2.891038       -78.6691
   6   2.0000      -2.888764       -78.6073
   7   2.0000      -1.117537       -30.4097
   8   2.0000      -0.772663       -21.0252
   9   2.0000      -0.546541       -14.8721
  10   2.0000      -0.514764       -14.0074
  11   2.0000      -0.510172       -13.8825
  12   2.0000      -0.491581       -13.3766
  13   2.0000      -0.351058        -9.5528
  14   2.0000      -0.350723        -9.5437
  15   2.0000      -0.271579        -7.3900
  16   0.0000       0.000899         0.0245
  17   0.0000       0.001206         0.0328
  18   0.0000       0.036891         1.0038
  19   0.0000       0.045906         1.2492
  20   0.0000       0.055458         1.5091

MULLIKEN ATOMIC CHARGES
-----------------------
   0 O :   -0.115245
   1 H :    0.075250
   2 H :    0.054777
   3 C :    0.017524
   4 H :   -0.090248
   5 H :    0.070235
   6 Al:   -0.071591
   7 H :    0.059298
Sum of atomic charges:    0.0000000

LOEWDIN ATOMIC CHARGES
----------------------
   0 O :   -0.543906
   1 H :   -0.001928
   2 H :   -0.003408
   3 C :   -0.003282
   4 H :    0.007793
   5 H :    0.036324
   6 Al:    0.522289
   7 H :   -0.013882

  Mayer bond orders larger than 0.100000
B(  0-O ,  3-C ) :   0.6662 B(  0-O ,  6-Al) :   0.4538 B(  1-H ,  3-C ) :   1.0188
B(  2-H ,  3-C ) :   1.0281 B(  3-C ,  7-H ) :   1.0003 B(  4-H ,  5-H ) :   1.0034

MP2 TOTAL ENERGY:     -358.617015713 Eh
Dispersion correction           -0.003531884
FINAL SINGLE POINT ENERGY      -358.620547597138

DIPOLE MOMENT
-------------
                                X             Y             Z
Electronic contribution:      8.70058      -0.00591       5.31354
Nuclear contribution   :     -8.98536       0.01025      -5.24566
                        -----------------------------------------
Total Dipole Moment    :     -0.28478       0.00434       0.06788
                        -----------------------------------------
Magnitude (a.u.)       :      0.29279
Magnitude (Debye)      :      0.74421

Rotational constants in cm-1:     0.678137     0.159402     0.132325
Rotational constants in MHz : 20330.024381  4778.738837  3967.007595

                             ****ORCA TERMINATED NORMALLY****
TOTAL RUN TIME: 0 days 0 hours 0 minutes 6 seconds 389 msec
