                         Program Version 4.2.0 -  RELEASE  -
|  1> #
|  2> # 050 ri-B2PLYP-D3BJ/Def2-TZVPPD
|  3> #
|  4> ! rijk ri-b2plyp d3bj def2-tzvppd def2/jk def2-tzvppd/c grid4 nofinalgrid
|  5>
|  6> *xyz 0 1
|  7> H          0.20940       -0.52586       -2.49943
|  8> Cl        -0.00687       -1.57667        0.66924
|  9> H         -0.20240       -1.10325       -2.75186
| 10> H         -1.52841        1.31136        0.17964
| 11> H          1.18008        1.27520       -0.42375
| 12> H          0.01798       -1.62546        1.96923
| 13> Al        -0.00655        1.11839        0.64244
| 14> H          0.33679        1.12629        2.21448
| 15> *
| 16>
| 17> %maxcore 5000
| 18>
| 19> %pal
| 20> nprocs = 24
| 21> end
| 22>
| 23>
| 24>                          ****END OF INPUT****

CARTESIAN COORDINATES (ANGSTROEM)
---------------------------------
  H      0.209400   -0.525860   -2.499430
  Cl    -0.006870   -1.576670    0.669240
  H     -0.202400   -1.103250   -2.751860
  H     -1.528410    1.311360    0.179640
  H      1.180080    1.275200   -0.423750
  H      0.017980   -1.625460    1.969230
  Al    -0.006550    1.118390    0.642440
  H      0.336790    1.126290    2.214480

 Total Charge           Charge          ....    0
 Multiplicity           Mult            ....    1
 Number of Electrons    NEL             ....   36
 Basis Dimension        Dim             ....  201

ORBITAL ENERGIES
----------------

  NO   OCC          E(Eh)            E(eV)
   0   2.0000    -102.971784     -2802.0047
   1   2.0000     -57.035054     -1552.0027
   2   2.0000      -9.977103      -271.4908
   3   2.0000      -7.616392      -207.2526
   4   2.0000      -7.611579      -207.1216
   5   2.0000      -7.610781      -207.0999
   6   2.0000      -4.430710      -120.5657
   7   2.0000      -2.888660       -78.6044
   8   2.0000      -2.882945       -78.4489
   9   2.0000      -2.882792       -78.4448
  10   2.0000      -1.008184       -27.4341
  11   2.0000      -0.581793       -15.8314
  12   2.0000      -0.502826       -13.6826
  13   2.0000      -0.495192       -13.4748
  14   2.0000      -0.442595       -12.0436
  15   2.0000      -0.424155       -11.5418
  16   2.0000      -0.343608        -9.3501
  17   2.0000      -0.340069        -9.2538
  18   0.0000      -0.004269        -0.1162
  19   0.0000       0.018352         0.4994
  20   0.0000       0.041909         1.1404
  21   0.0000       0.050118         1.3638
  22   0.0000       0.057042         1.5522

MULLIKEN ATOMIC CHARGES
-----------------------
   0 H :   -0.040249
   1 Cl:   -0.205983
   2 H :    0.030855
   3 H :   -0.217460
   4 H :   -0.224460
   5 H :    0.275810
   6 Al:    0.619010
   7 H :   -0.237523
Sum of atomic charges:   -0.0000000

LOEWDIN ATOMIC CHARGES
----------------------
   0 H :    0.006400
   1 Cl:    0.521165
   2 H :    0.028323
   3 H :   -0.189613
   4 H :   -0.191224
   5 H :   -0.331288
   6 Al:    0.343875
   7 H :   -0.187639

  Mayer bond orders larger than 0.100000
B(  0-H ,  2-H ) :   0.9994 B(  1-Cl,  5-H ) :   0.9435 B(  1-Cl,  6-Al) :   0.1768
B(  3-H ,  6-Al) :   0.9237 B(  4-H ,  6-Al) :   0.9174 B(  6-Al,  7-H ) :   0.8968

MP2 TOTAL ENERGY:     -705.947863828 Eh
Dispersion correction           -0.003557362
FINAL SINGLE POINT ENERGY      -705.951421190617

DIPOLE MOMENT
-------------
                                X             Y             Z
Electronic contribution:     -0.04035      -3.62531       5.10498
Nuclear contribution   :      0.04784       2.78212      -4.67262
                        -----------------------------------------
Total Dipole Moment    :      0.00750      -0.84319       0.43235
                        -----------------------------------------
Magnitude (a.u.)       :      0.94761
Magnitude (Debye)      :      2.40863

Rotational constants in cm-1:     0.545363     0.134491     0.113645
Rotational constants in MHz : 16349.582447  4031.950699  3406.980673

                             ****ORCA TERMINATED NORMALLY****
TOTAL RUN TIME: 0 days 0 hours 0 minutes 6 seconds 26 msec
