                         Program Version 4.2.0 -  RELEASE  -
|  1> #
|  2> # 070 ri-B2PLYP-D3BJ/Def2-TZVPPD
|  3> #
|  4> ! rijk ri-b2plyp d3bj def2-tzvppd def2/jk def2-tzvppd/c grid4 nofinalgrid
|  5>
|  6> *xyz 0 1
|  7> H          0.08530       -0.02655        1.60712
|  8> H          0.90656       -0.78582       -1.39861
|  9> Be        -0.05035        0.92778       -0.02639
| 10> H          0.07901        0.71807        1.80526
| 11> F         -0.04624       -1.68577        0.17900
| 12> C         -0.00461       -0.62157       -0.79461
| 13> H         -0.11623        2.26790        0.10895
| 14> H         -0.85344       -0.79405       -1.48072
| 15> *
| 16>
| 17> %maxcore 5000
| 18>
| 19> %pal
| 20> nprocs = 24
| 21> end
| 22>
| 23>
| 24>                          ****END OF INPUT****

CARTESIAN COORDINATES (ANGSTROEM)
---------------------------------
  H      0.085300   -0.026550    1.607120
  H      0.906560   -0.785820   -1.398610
  Be    -0.050350    0.927780   -0.026390
  H      0.079010    0.718070    1.805260
  F     -0.046240   -1.685770    0.179000
  C     -0.004610   -0.621570   -0.794610
  H     -0.116230    2.267900    0.108950
  H     -0.853440   -0.794050   -1.480720

 Total Charge           Charge          ....    0
 Multiplicity           Mult            ....    1
 Number of Electrons    NEL             ....   24
 Basis Dimension        Dim             ....  184

ORBITAL ENERGIES
----------------

  NO   OCC          E(Eh)            E(eV)
   0   2.0000     -25.326203      -689.1610
   1   2.0000     -10.655895      -289.9616
   2   2.0000      -4.297761      -116.9480
   3   2.0000      -1.327140       -36.1133
   4   2.0000      -0.769709       -20.9449
   5   2.0000      -0.595749       -16.2112
   6   2.0000      -0.544472       -14.8158
   7   2.0000      -0.540147       -14.6981
   8   2.0000      -0.506921       -13.7940
   9   2.0000      -0.414739       -11.2856
  10   2.0000      -0.380238       -10.3468
  11   2.0000      -0.348937        -9.4950
  12   0.0000       0.002985         0.0812
  13   0.0000       0.025547         0.6952
  14   0.0000       0.035566         0.9678
  15   0.0000       0.040092         1.0910
  16   0.0000       0.062987         1.7140

MULLIKEN ATOMIC CHARGES
-----------------------
   0 H :    0.089175
   1 H :   -0.036515
   2 Be:    0.109335
   3 H :   -0.068782
   4 F :   -0.346565
   5 C :    0.355574
   6 H :   -0.068146
   7 H :   -0.034075
Sum of atomic charges:    0.0000000

LOEWDIN ATOMIC CHARGES
----------------------
   0 H :    0.081729
   1 H :   -0.048563
   2 Be:    0.368160
   3 H :    0.073523
   4 F :   -0.210517
   5 C :   -0.107496
   6 H :   -0.107556
   7 H :   -0.049281

  Mayer bond orders larger than 0.100000
B(  0-H ,  2-Be) :   0.1279 B(  0-H ,  3-H ) :   0.9373 B(  1-H ,  5-C ) :   1.0204
B(  2-Be,  3-H ) :   0.1286 B(  2-Be,  5-C ) :   1.0617 B(  2-Be,  6-H ) :   0.8868
B(  4-F ,  5-C ) :   0.7278 B(  5-C ,  7-H ) :   1.0225

MP2 TOTAL ENERGY:     -155.591652717 Eh
Dispersion correction           -0.002730710
FINAL SINGLE POINT ENERGY      -155.594383427616

DIPOLE MOMENT
-------------
                                X             Y             Z
Electronic contribution:     -0.19590      -3.52657      -0.76008
Nuclear contribution   :      0.26588       3.83479       0.81982
                        -----------------------------------------
Total Dipole Moment    :      0.06998       0.30822       0.05974
                        -----------------------------------------
Magnitude (a.u.)       :      0.32166
Magnitude (Debye)      :      0.81760

Rotational constants in cm-1:     0.879452     0.304630     0.236523
Rotational constants in MHz : 26365.310047  9132.583609  7090.795310

                             ****ORCA TERMINATED NORMALLY****
TOTAL RUN TIME: 0 days 0 hours 0 minutes 3 seconds 989 msec
