                         Program Version 4.2.0 -  RELEASE  -
|  1> #
|  2> # 076 ri-B2PLYP-D3BJ/Def2-TZVPPD
|  3> #
|  4> ! rijk ri-b2plyp d3bj def2-tzvppd def2/jk def2-tzvppd/c grid4 nofinalgrid
|  5>
|  6> *xyz 0 1
|  7> H         -0.10732        2.90062       -0.02721
|  8> H          0.35760       -1.90152        0.97790
|  9> Li        -0.27775        0.78724       -0.00029
| 10> H          0.84572       -0.46906       -0.34423
| 11> H         -1.10236       -0.68915        0.32212
| 12> B         -0.04346       -1.30148        0.00006
| 13> H          0.61490        2.68175        0.02928
| 14> H         -0.28734       -2.00840       -0.95762
| 15> *
| 16>
| 17> %maxcore 5000
| 18>
| 19> %pal
| 20> nprocs = 24
| 21> end
| 22>
| 23>
| 24>                          ****END OF INPUT****

CARTESIAN COORDINATES (ANGSTROEM)
---------------------------------
  H     -0.107320    2.900620   -0.027210
  H      0.357600   -1.901520    0.977900
  Li    -0.277750    0.787240   -0.000290
  H      0.845720   -0.469060   -0.344230
  H     -1.102360   -0.689150    0.322120
  B     -0.043460   -1.301480    0.000060
  H      0.614900    2.681750    0.029280
  H     -0.287340   -2.008400   -0.957620

 Total Charge           Charge          ....    0
 Multiplicity           Mult            ....    1
 Number of Electrons    NEL             ....   14
 Basis Dimension        Dim             ....  161

ORBITAL ENERGIES
----------------

  NO   OCC          E(Eh)            E(eV)
   0   2.0000      -7.008315      -190.7059
   1   2.0000      -2.209609       -60.1265
   2   2.0000      -0.596599       -16.2343
   3   2.0000      -0.565010       -15.3747
   4   2.0000      -0.352524        -9.5927
   5   2.0000      -0.338306        -9.2058
   6   2.0000      -0.325165        -8.8482
   7   0.0000      -0.014617        -0.3978
   8   0.0000       0.004891         0.1331
   9   0.0000       0.009366         0.2549
  10   0.0000       0.017529         0.4770
  11   0.0000       0.053696         1.4611

MULLIKEN ATOMIC CHARGES
-----------------------
   0 H :    0.028767
   1 H :   -0.057470
   2 Li:    0.719016
   3 H :   -0.238946
   4 H :   -0.201662
   5 B :   -0.203678
   6 H :    0.010768
   7 H :   -0.056796
Sum of atomic charges:    0.0000000

LOEWDIN ATOMIC CHARGES
----------------------
   0 H :    0.099106
   1 H :   -0.072550
   2 Li:    0.333216
   3 H :   -0.083052
   4 H :   -0.075972
   5 B :   -0.224450
   6 H :    0.096350
   7 H :   -0.072648

  Mayer bond orders larger than 0.100000
B(  0-H ,  6-H ) :   0.9573 B(  1-H ,  5-B ) :   0.9728 B(  2-Li,  3-H ) :   0.1185
B(  2-Li,  4-H ) :   0.1314 B(  2-Li,  5-B ) :   0.1351 B(  3-H ,  5-B ) :   0.8410
B(  4-H ,  5-B ) :   0.8442 B(  5-B ,  7-H ) :   0.9723

MP2 TOTAL ENERGY:      -35.918688136 Eh
Dispersion correction           -0.002566626
FINAL SINGLE POINT ENERGY       -35.921254762665

DIPOLE MOMENT
-------------
                                X             Y             Z
Electronic contribution:     -1.17655       0.80344      -0.00123
Nuclear contribution   :      0.92718       2.12684       0.00062
                        -----------------------------------------
Total Dipole Moment    :     -0.24938       2.93027      -0.00060
                        -----------------------------------------
Magnitude (a.u.)       :      2.94086
Magnitude (Debye)      :      7.47508

Rotational constants in cm-1:     3.344864     0.365518     0.359194
Rotational constants in MHz : 100276.510227 10957.945080 10768.366475

                             ****ORCA TERMINATED NORMALLY****
TOTAL RUN TIME: 0 days 0 hours 0 minutes 4 seconds 430 msec
