                         Program Version 4.2.0 -  RELEASE  -
|  1> #
|  2> # 088 ri-B2PLYP-D3BJ/Def2-TZVPPD
|  3> #
|  4> ! rijk ri-b2plyp d3bj def2-tzvppd def2/jk def2-tzvppd/c grid4 nofinalgrid
|  5>
|  6> *xyz 0 1
|  7> C          0.81376        0.10372        0.34640
|  8> H          0.87654        0.17194        1.44377
|  9> H          1.67271        0.57624       -0.15360
| 10> N          0.56076       -1.37061        0.00951
| 11> C         -0.53618        0.54868       -0.29052
| 12> S         -2.13839       -0.48145        0.15104
| 13> H         -0.69523        1.33853       -1.02043
| 14> C         -0.55397       -0.88705       -0.48618
| 15> *
| 16>
| 17> %maxcore 5000
| 18>
| 19> %pal
| 20> nprocs = 24
| 21> end
| 22>
| 23>
| 24>                          ****END OF INPUT****

CARTESIAN COORDINATES (ANGSTROEM)
---------------------------------
  C      0.813760    0.103720    0.346400
  H      0.876540    0.171940    1.443770
  H      1.672710    0.576240   -0.153600
  N      0.560760   -1.370610    0.009510
  C     -0.536180    0.548680   -0.290520
  S     -2.138390   -0.481450    0.151040
  H     -0.695230    1.338530   -1.020430
  C     -0.553970   -0.887050   -0.486180

 Total Charge           Charge          ....    0
 Multiplicity           Mult            ....    1
 Number of Electrons    NEL             ....   44
 Basis Dimension        Dim             ....  250

ORBITAL ENERGIES
----------------

  NO   OCC          E(Eh)            E(eV)
   0   2.0000     -90.199900     -2454.4641
   1   2.0000     -14.854752      -404.2183
   2   2.0000     -10.725389      -291.8527
   3   2.0000     -10.695224      -291.0318
   4   2.0000     -10.682799      -290.6938
   5   2.0000      -8.401832      -228.6255
   6   2.0000      -6.248048      -170.0180
   7   2.0000      -6.246966      -169.9886
   8   2.0000      -6.241471      -169.8391
   9   2.0000      -1.127655       -30.6850
  10   2.0000      -0.931750       -25.3542
  11   2.0000      -0.819538       -22.3008
  12   2.0000      -0.715379       -19.4665
  13   2.0000      -0.611277       -16.6337
  14   2.0000      -0.557514       -15.1707
  15   2.0000      -0.533719       -14.5232
  16   2.0000      -0.520534       -14.1644
  17   2.0000      -0.431589       -11.7441
  18   2.0000      -0.398278       -10.8377
  19   2.0000      -0.380659       -10.3583
  20   2.0000      -0.310115        -8.4387
  21   2.0000      -0.291059        -7.9201
  22   0.0000      -0.043547        -1.1850
  23   0.0000       0.007477         0.2035
  24   0.0000       0.029250         0.7959
  25   0.0000       0.041856         1.1390
  26   0.0000       0.046728         1.2715

MULLIKEN ATOMIC CHARGES
-----------------------
   0 C :    0.282410
   1 H :    0.027137
   2 H :    0.060392
   3 N :   -0.556138
   4 C :   -0.050163
   5 S :   -0.217060
   6 H :    0.110849
   7 C :    0.342572
Sum of atomic charges:   -0.0000000

LOEWDIN ATOMIC CHARGES
----------------------
   0 C :   -0.032667
   1 H :    0.023423
   2 H :    0.019244
   3 N :    0.068064
   4 C :   -0.260778
   5 S :    0.855271
   6 H :   -0.018532
   7 C :   -0.654024

  Mayer bond orders larger than 0.100000
B(  0-C ,  1-H ) :   0.9872 B(  0-C ,  2-H ) :   0.9900 B(  0-C ,  3-N ) :   0.7061
B(  0-C ,  4-C ) :   0.8625 B(  0-C ,  7-C ) :   0.1643 B(  3-N ,  4-C ) :   0.1341
B(  3-N ,  7-C ) :   1.4691 B(  4-C ,  5-S ) :   0.8767 B(  4-C ,  6-H ) :   1.0115
B(  4-C ,  7-C ) :   0.9192 B(  5-S ,  7-C ) :   1.0374

MP2 TOTAL ENERGY:     -568.697542618 Eh
Dispersion correction           -0.005586069
FINAL SINGLE POINT ENERGY      -568.703128686674

DIPOLE MOMENT
-------------
                                X             Y             Z
Electronic contribution:     -3.83188      -2.05054      -0.39027
Nuclear contribution   :      3.84230       3.12311       0.24615
                        -----------------------------------------
Total Dipole Moment    :      0.01042       1.07258      -0.14412
                        -----------------------------------------
Magnitude (a.u.)       :      1.08227
Magnitude (Debye)      :      2.75090

Rotational constants in cm-1:     0.386346     0.125803     0.105869
Rotational constants in MHz : 11582.371237  3771.469962  3173.859054

                             ****ORCA TERMINATED NORMALLY****
TOTAL RUN TIME: 0 days 0 hours 0 minutes 6 seconds 736 msec
