                         Program Version 4.2.0 -  RELEASE  -
|  1> #
|  2> # 096 ri-B2PLYP-D3BJ/Def2-TZVPPD
|  3> #
|  4> ! rijk ri-b2plyp d3bj def2-tzvppd def2/jk def2-tzvppd/c grid4 nofinalgrid
|  5>
|  6> *xyz 0 1
|  7> H          0.74842        1.26851        0.59882
|  8> C         -0.16355        0.74665        0.30940
|  9> H          0.74849       -1.26857        0.59856
| 10> C         -0.16356       -0.74663        0.30935
| 11> H          1.21141        0.00004       -1.60315
| 12> H         -1.08115        1.25625        0.60788
| 13> P         -0.21890        0.00004       -1.42860
| 14> H         -1.08115       -1.25629        0.60773
| 15> *
| 16>
| 17> %maxcore 5000
| 18>
| 19> %pal
| 20> nprocs = 24
| 21> end
| 22>
| 23>
| 24>                          ****END OF INPUT****

CARTESIAN COORDINATES (ANGSTROEM)
---------------------------------
  H      0.748420    1.268510    0.598820
  C     -0.163550    0.746650    0.309400
  H      0.748490   -1.268570    0.598560
  C     -0.163560   -0.746630    0.309350
  H      1.211410    0.000040   -1.603150
  H     -1.081150    1.256250    0.607880
  P     -0.218900    0.000040   -1.428600
  H     -1.081150   -1.256290    0.607730

 Total Charge           Charge          ....    0
 Multiplicity           Mult            ....    1
 Number of Electrons    NEL             ....   32
 Basis Dimension        Dim             ....  207

ORBITAL ENERGIES
----------------

  NO   OCC          E(Eh)            E(eV)
   0   2.0000     -78.260307     -2129.5712
   1   2.0000     -10.633176      -289.3434
   2   2.0000     -10.632702      -289.3305
   3   2.0000      -6.928745      -188.5407
   4   2.0000      -4.979834      -135.5082
   5   2.0000      -4.977759      -135.4517
   6   2.0000      -4.976946      -135.4296
   7   2.0000      -0.922649       -25.1065
   8   2.0000      -0.695900       -18.9364
   9   2.0000      -0.650387       -17.6979
  10   2.0000      -0.551655       -15.0113
  11   2.0000      -0.498643       -13.5688
  12   2.0000      -0.437624       -11.9084
  13   2.0000      -0.386428       -10.5152
  14   2.0000      -0.313400        -8.5281
  15   2.0000      -0.310436        -8.4474
  16   0.0000       0.033126         0.9014
  17   0.0000       0.035855         0.9757
  18   0.0000       0.053624         1.4592
  19   0.0000       0.072897         1.9836
  20   0.0000       0.085969         2.3393

MULLIKEN ATOMIC CHARGES
-----------------------
   0 H :    0.094299
   1 C :   -0.127187
   2 H :    0.094263
   3 C :   -0.127067
   4 H :   -0.033496
   5 H :    0.078540
   6 P :   -0.057869
   7 H :    0.078517
Sum of atomic charges:    0.0000000

LOEWDIN ATOMIC CHARGES
----------------------
   0 H :   -0.042351
   1 C :   -0.261410
   2 H :   -0.042317
   3 C :   -0.261437
   4 H :   -0.177791
   5 H :   -0.048023
   6 P :    0.881365
   7 H :   -0.048036

  Mayer bond orders larger than 0.100000
B(  0-H ,  1-C ) :   1.0030 B(  1-C ,  3-C ) :   0.8757 B(  1-C ,  5-H ) :   1.0251
B(  1-C ,  6-P ) :   0.8990 B(  2-H ,  3-C ) :   1.0030 B(  3-C ,  6-P ) :   0.8991
B(  3-C ,  7-H ) :   1.0251 B(  4-H ,  6-P ) :   1.0062

MP2 TOTAL ENERGY:     -420.380457315 Eh
Dispersion correction           -0.004342070
FINAL SINGLE POINT ENERGY      -420.384799385210

DIPOLE MOMENT
-------------
                                X             Y             Z
Electronic contribution:     -1.18001       0.00012      -3.87906
Nuclear contribution   :      1.35041      -0.00018       4.31337
                        -----------------------------------------
Total Dipole Moment    :      0.17039      -0.00007       0.43431
                        -----------------------------------------
Magnitude (a.u.)       :      0.46654
Magnitude (Debye)      :      1.18585

Rotational constants in cm-1:     0.669213     0.315945     0.248635
Rotational constants in MHz : 20062.492743  9471.799383  7453.892881

                             ****ORCA TERMINATED NORMALLY****
TOTAL RUN TIME: 0 days 0 hours 0 minutes 5 seconds 509 msec
