                         Program Version 4.2.0 -  RELEASE  -
|  1> #
|  2> # 104 ri-B2PLYP-D3BJ/Def2-TZVPPD
|  3> #
|  4> ! rijk ri-b2plyp d3bj def2-tzvppd def2/jk def2-tzvppd/c grid4 nofinalgrid
|  5>
|  6> *xyz 0 2
|  7> C          0.18239        0.81792       -0.17289
|  8> H         -2.32613        0.04031        1.01174
|  9> H          2.24798        0.73105       -0.01871
| 10> C          1.34005        0.10819       -0.12066
| 11> H          0.11379        1.91914       -0.21133
| 12> Si        -1.43329       -0.14152       -0.20061
| 13> H         -1.02937       -1.64029       -0.13873
| 14> Li         0.90457       -1.83481       -0.14881
| 15> *
| 16>
| 17> %maxcore 5000
| 18>
| 19> %pal
| 20> nprocs = 24
| 21> end
| 22>
| 23>
| 24>                          ****END OF INPUT****

CARTESIAN COORDINATES (ANGSTROEM)
---------------------------------
  C      0.182390    0.817920   -0.172890
  H     -2.326130    0.040310    1.011740
  H      2.247980    0.731050   -0.018710
  C      1.340050    0.108190   -0.120660
  H      0.113790    1.919140   -0.211330
  Si    -1.433290   -0.141520   -0.200610
  H     -1.029370   -1.640290   -0.138730
  Li     0.904570   -1.834810   -0.148810

 Total Charge           Charge          ....    0
 Multiplicity           Mult            ....    2
 Number of Electrons    NEL             ....   33
 Basis Dimension        Dim             ....  212

ORBITAL ENERGIES
----------------
                 SPIN UP ORBITALS
  NO   OCC          E(Eh)            E(eV)
   0   1.0000     -67.223181     -1829.2357
   1   1.0000     -10.584496      -288.0188
   2   1.0000     -10.563013      -287.4342
   3   1.0000      -5.621462      -152.9678
   4   1.0000      -3.879788      -105.5744
   5   1.0000      -3.874328      -105.4258
   6   1.0000      -3.872145      -105.3664
   7   1.0000      -2.178582       -59.2822
   8   1.0000      -0.822901       -22.3923
   9   1.0000      -0.621337       -16.9075
  10   1.0000      -0.552225       -15.0268
  11   1.0000      -0.473127       -12.8744
  12   1.0000      -0.401491       -10.9251
  13   1.0000      -0.371030       -10.0962
  14   1.0000      -0.306594        -8.3428
  15   1.0000      -0.260282        -7.0826
  16   1.0000      -0.226825        -6.1722
  17   0.0000      -0.018221        -0.4958
  18   0.0000       0.015521         0.4223
  19   0.0000       0.023005         0.6260
  20   0.0000       0.035869         0.9760
  21   0.0000       0.055208         1.5023

                 SPIN DOWN ORBITALS
  NO   OCC          E(Eh)            E(eV)
   0   1.0000     -67.219003     -1829.1221
   1   1.0000     -10.583961      -288.0042
   2   1.0000     -10.560151      -287.3563
   3   1.0000      -5.616306      -152.8274
   4   1.0000      -3.871797      -105.3570
   5   1.0000      -3.869809      -105.3028
   6   1.0000      -3.865500      -105.1856
   7   1.0000      -2.178749       -59.2868
   8   1.0000      -0.816063       -22.2062
   9   1.0000      -0.605535       -16.4775
  10   1.0000      -0.540659       -14.7121
  11   1.0000      -0.466178       -12.6854
  12   1.0000      -0.393354       -10.7037
  13   1.0000      -0.362757        -9.8711
  14   1.0000      -0.283976        -7.7274
  15   1.0000      -0.248417        -6.7598
  16   0.0000      -0.035670        -0.9706
  17   0.0000      -0.017324        -0.4714
  18   0.0000       0.015947         0.4339
  19   0.0000       0.023607         0.6424
  20   0.0000       0.037157         1.0111

MULLIKEN ATOMIC CHARGES AND SPIN POPULATIONS
--------------------------------------------
   0 C :    0.012012   -0.024691
   1 H :   -0.117086    0.052180
   2 H :   -0.053418   -0.001515
   3 C :   -0.682311    0.175450
   4 H :    0.075135    0.006414
   5 Si:    0.311478    0.772801
   6 H :   -0.317920    0.023383
   7 Li:    0.772111   -0.004022
Sum of atomic charges         :    0.0000000

LOEWDIN ATOMIC CHARGES AND SPIN POPULATIONS
-------------------------------------------
   0 C :   -0.425541    0.081767
   1 H :   -0.165638    0.080300
   2 H :   -0.126094    0.016974
   3 C :   -0.149867    0.117134
   4 H :   -0.090954   -0.002444
   5 Si:    0.710322    0.633947
   6 H :   -0.147478    0.063559
   7 Li:    0.395249    0.008763

  Mayer bond orders larger than 0.100000
B(  0-C ,  3-C ) :   1.5090 B(  0-C ,  4-H ) :   0.9981 B(  0-C ,  5-Si) :   1.0907
B(  1-H ,  5-Si) :   0.9522 B(  2-H ,  3-C ) :   1.2169 B(  3-C ,  5-Si) :   0.2155
B(  3-C ,  7-Li) :   0.2406 B(  5-Si,  6-H ) :   0.7309 B(  6-H ,  7-Li) :   0.1210

MP2 TOTAL ENERGY:     -375.369299178 Eh
Dispersion correction           -0.005875085
FINAL SINGLE POINT ENERGY      -375.375174262697

DIPOLE MOMENT
-------------
                                X             Y             Z
Electronic contribution:      1.12941      -4.43384      -1.19859
Nuclear contribution   :     -0.90522       2.81558       1.17165
                        -----------------------------------------
Total Dipole Moment    :      0.22419      -1.61826      -0.02694
                        -----------------------------------------
Magnitude (a.u.)       :      1.63394
Magnitude (Debye)      :      4.15314

Rotational constants in cm-1:     0.419182     0.179284     0.128388
Rotational constants in MHz : 12566.751634  5374.809128  3848.967152

                             ****ORCA TERMINATED NORMALLY****
TOTAL RUN TIME: 0 days 0 hours 0 minutes 6 seconds 653 msec
