                         Program Version 4.2.0 -  RELEASE  -
|  1> #
|  2> # 111 ri-B2PLYP-D3BJ/Def2-TZVPPD
|  3> #
|  4> ! rijk ri-b2plyp d3bj def2-tzvppd def2/jk def2-tzvppd/c grid4 nofinalgrid
|  5>
|  6> *xyz 0 2
|  7> N          0.85218        0.06581        1.54293
|  8> C         -0.45432        0.04016        1.51127
|  9> H          0.51389       -1.04630       -1.15231
| 10> H         -1.27128       -0.21181        2.19239
| 11> H          0.93075        0.61434       -1.62997
| 12> C          0.02563        0.43731        0.29642
| 13> C          0.17679        0.00817       -1.10677
| 14> H         -0.77364        0.09232       -1.65395
| 15> *
| 16>
| 17> %maxcore 5000
| 18>
| 19> %pal
| 20> nprocs = 24
| 21> end
| 22>
| 23>
| 24>                          ****END OF INPUT****

CARTESIAN COORDINATES (ANGSTROEM)
---------------------------------
  N      0.852180    0.065810    1.542930
  C     -0.454320    0.040160    1.511270
  H      0.513890   -1.046300   -1.152310
  H     -1.271280   -0.211810    2.192390
  H      0.930750    0.614340   -1.629970
  C      0.025630    0.437310    0.296420
  C      0.176790    0.008170   -1.106770
  H     -0.773640    0.092320   -1.653950

 Total Charge           Charge          ....    0
 Multiplicity           Mult            ....    2
 Number of Electrons    NEL             ....   29
 Basis Dimension        Dim             ....  216

ORBITAL ENERGIES
----------------
                 SPIN UP ORBITALS
  NO   OCC          E(Eh)            E(eV)
   0   1.0000     -14.866835      -404.5471
   1   1.0000     -10.689730      -290.8823
   2   1.0000     -10.669401      -290.3292
   3   1.0000     -10.631921      -289.3093
   4   1.0000      -1.127729       -30.6871
   5   1.0000      -0.862986       -23.4830
   6   1.0000      -0.697281       -18.9740
   7   1.0000      -0.667672       -18.1683
   8   1.0000      -0.541665       -14.7394
   9   1.0000      -0.521678       -14.1956
  10   1.0000      -0.494305       -13.4507
  11   1.0000      -0.457858       -12.4589
  12   1.0000      -0.422939       -11.5088
  13   1.0000      -0.345111        -9.3909
  14   1.0000      -0.246423        -6.7055
  15   0.0000       0.016976         0.4620
  16   0.0000       0.039244         1.0679
  17   0.0000       0.053179         1.4471
  18   0.0000       0.076315         2.0766
  19   0.0000       0.091565         2.4916

                 SPIN DOWN ORBITALS
  NO   OCC          E(Eh)            E(eV)
   0   1.0000     -14.853564      -404.1860
   1   1.0000     -10.695051      -291.0271
   2   1.0000     -10.653876      -289.9067
   3   1.0000     -10.631954      -289.3102
   4   1.0000      -1.107738       -30.1431
   5   1.0000      -0.851057       -23.1584
   6   1.0000      -0.690265       -18.7831
   7   1.0000      -0.647375       -17.6160
   8   1.0000      -0.529663       -14.4129
   9   1.0000      -0.491036       -13.3618
  10   1.0000      -0.489049       -13.3077
  11   1.0000      -0.428419       -11.6579
  12   1.0000      -0.399861       -10.8808
  13   1.0000      -0.331974        -9.0335
  14   0.0000       0.015471         0.4210
  15   0.0000       0.035486         0.9656
  16   0.0000       0.046927         1.2770
  17   0.0000       0.056217         1.5297
  18   0.0000       0.078507         2.1363

MULLIKEN ATOMIC CHARGES AND SPIN POPULATIONS
--------------------------------------------
   0 N :   -0.427366    0.492114
   1 C :   -0.035705   -0.226114
   2 H :    0.096986    0.058695
   3 H :    0.049128    0.016028
   4 H :    0.071214    0.019806
   5 C :    0.375465    0.686049
   6 C :   -0.208412   -0.041073
   7 H :    0.078690   -0.005504
Sum of atomic charges         :    0.0000000

LOEWDIN ATOMIC CHARGES AND SPIN POPULATIONS
-------------------------------------------
   0 N :    0.126393    0.431887
   1 C :   -0.050533   -0.062822
   2 H :   -0.003057    0.025883
   3 H :    0.007798   -0.018650
   4 H :   -0.013617    0.007967
   5 C :   -0.161813    0.534946
   6 C :    0.109139    0.081562
   7 H :   -0.014311   -0.000773

  Mayer bond orders larger than 0.100000
B(  0-N ,  1-C ) :   1.6710 B(  0-N ,  5-C ) :   0.6093 B(  1-C ,  3-H ) :   1.0414
B(  1-C ,  5-C ) :   1.0896 B(  2-H ,  6-C ) :   0.9527 B(  4-H ,  6-C ) :   1.0208
B(  5-C ,  6-C ) :   0.8442 B(  6-C ,  7-H ) :   1.0200

MP2 TOTAL ENERGY:     -171.244826156 Eh
Dispersion correction           -0.003568676
FINAL SINGLE POINT ENERGY      -171.248394832369

DIPOLE MOMENT
-------------
                                X             Y             Z
Electronic contribution:      0.21524       0.72167       3.65681
Nuclear contribution   :     -1.13576      -0.94785      -4.02666
                        -----------------------------------------
Total Dipole Moment    :     -0.92052      -0.22618      -0.36985
                        -----------------------------------------
Magnitude (a.u.)       :      1.01750
Magnitude (Debye)      :      2.58629

Rotational constants in cm-1:     0.919406     0.218621     0.189338
Rotational constants in MHz : 27563.112958  6554.079895  5676.208610

                             ****ORCA TERMINATED NORMALLY****
TOTAL RUN TIME: 0 days 0 hours 0 minutes 7 seconds 236 msec
