                         Program Version 4.2.0 -  RELEASE  -
|  1> #
|  2> # 123 ri-B2PLYP-D3BJ/Def2-TZVPPD
|  3> #
|  4> ! rijk ri-b2plyp d3bj def2-tzvppd def2/jk def2-tzvppd/c grid4 nofinalgrid
|  5>
|  6> *xyz 0 2
|  7> H         -0.05566       -1.00378        1.35004
|  8> H         -0.85108        0.57288        1.07820
|  9> C          0.00090       -0.05557        0.78344
| 10> H         -0.84105       -0.66759       -1.01558
| 11> H          0.91403        0.47335        1.08996
| 12> H          0.01842        1.61333       -1.60506
| 13> H          0.81267       -0.72579       -1.00914
| 14> N          0.00176       -0.20682       -0.67186
| 15> *
| 16>
| 17> %maxcore 5000
| 18>
| 19> %pal
| 20> nprocs = 24
| 21> end
| 22>
| 23>
| 24>                          ****END OF INPUT****

CARTESIAN COORDINATES (ANGSTROEM)
---------------------------------
  H     -0.055660   -1.003780    1.350040
  H     -0.851080    0.572880    1.078200
  C      0.000900   -0.055570    0.783440
  H     -0.841050   -0.667590   -1.015580
  H      0.914030    0.473350    1.089960
  H      0.018420    1.613330   -1.605060
  H      0.812670   -0.725790   -1.009140
  N      0.001760   -0.206820   -0.671860

 Total Charge           Charge          ....    0
 Multiplicity           Mult            ....    2
 Number of Electrons    NEL             ....   19
 Basis Dimension        Dim             ....  176

ORBITAL ENERGIES
----------------
                 SPIN UP ORBITALS
  NO   OCC          E(Eh)            E(eV)
   0   1.0000     -14.839467      -403.8024
   1   1.0000     -10.640018      -289.5296
   2   1.0000      -1.014382       -27.6027
   3   1.0000      -0.768998       -20.9255
   4   1.0000      -0.578887       -15.7523
   5   1.0000      -0.523143       -14.2354
   6   1.0000      -0.487025       -13.2526
   7   1.0000      -0.441474       -12.0131
   8   1.0000      -0.375713       -10.2237
   9   1.0000      -0.259959        -7.0738
  10   0.0000       0.035008         0.9526
  11   0.0000       0.057109         1.5540
  12   0.0000       0.087843         2.3903
  13   0.0000       0.108711         2.9582
  14   0.0000       0.124452         3.3865

                 SPIN DOWN ORBITALS
  NO   OCC          E(Eh)            E(eV)
   0   1.0000     -14.833757      -403.6470
   1   1.0000     -10.640170      -289.5337
   2   1.0000      -1.006275       -27.3821
   3   1.0000      -0.766904       -20.8685
   4   1.0000      -0.576170       -15.6784
   5   1.0000      -0.518446       -14.1076
   6   1.0000      -0.480855       -13.0847
   7   1.0000      -0.440834       -11.9957
   8   1.0000      -0.316269        -8.6061
   9   0.0000       0.007234         0.1969
  10   0.0000       0.045365         1.2344
  11   0.0000       0.062375         1.6973
  12   0.0000       0.088580         2.4104
  13   0.0000       0.110995         3.0203

MULLIKEN ATOMIC CHARGES AND SPIN POPULATIONS
--------------------------------------------
   0 H :    0.097544    0.010429
   1 H :    0.093083   -0.006473
   2 C :   -0.140422    0.002363
   3 H :    0.139890   -0.016343
   4 H :    0.091224   -0.004283
   5 H :   -0.048200    0.913649
   6 H :    0.141424   -0.017421
   7 N :   -0.374542    0.118080
Sum of atomic charges         :    0.0000000

LOEWDIN ATOMIC CHARGES AND SPIN POPULATIONS
-------------------------------------------
   0 H :   -0.017993    0.003714
   1 H :   -0.015959    0.004589
   2 C :    0.044205    0.013158
   3 H :   -0.104371    0.010662
   4 H :   -0.014960    0.003636
   5 H :    0.032360    0.769653
   6 H :   -0.103370    0.010067
   7 N :    0.180089    0.184522

  Mayer bond orders larger than 0.100000
B(  0-H ,  2-C ) :   1.0186 B(  1-H ,  2-C ) :   1.0110 B(  2-C ,  4-H ) :   1.0090
B(  2-C ,  7-N ) :   0.8106 B(  3-H ,  7-N ) :   1.0407 B(  5-H ,  7-N ) :   0.2501
B(  6-H ,  7-N ) :   1.0412

MP2 TOTAL ENERGY:      -96.310422488 Eh
Dispersion correction           -0.002382759
FINAL SINGLE POINT ENERGY       -96.312805246657

DIPOLE MOMENT
-------------
                                X             Y             Z
Electronic contribution:     -0.00836      -1.64127       0.47823
Nuclear contribution   :     -0.00825       0.82489      -0.08847
                        -----------------------------------------
Total Dipole Moment    :     -0.01662      -0.81639       0.38976
                        -----------------------------------------
Magnitude (a.u.)       :      0.90481
Magnitude (Debye)      :      2.29985

Rotational constants in cm-1:     2.000356     0.660608     0.601270
Rotational constants in MHz : 59969.149740 19804.516397 18025.616086

                             ****ORCA TERMINATED NORMALLY****
TOTAL RUN TIME: 0 days 0 hours 0 minutes 4 seconds 769 msec
