                         Program Version 4.2.0 -  RELEASE  -
|  1> #
|  2> # 125 ri-B2PLYP-D3BJ/Def2-TZVPPD
|  3> #
|  4> ! rijk ri-b2plyp d3bj def2-tzvppd def2/jk def2-tzvppd/c grid4 nofinalgrid
|  5>
|  6> *xyz 0 1
|  7> Li        -0.48880       -0.51538       -0.00659
|  8> H         -0.55944        2.54233       -0.00436
|  9> H         -2.17580       -1.82520        0.01329
| 10> C         -0.08896        1.54088       -0.00480
| 11> H         -1.56083       -2.26841        0.00934
| 12> Cl         1.44004       -1.55839       -0.00318
| 13> H          1.87023        0.32576       -0.00203
| 14> S          1.56356        1.75840       -0.00167
| 15> *
| 16>
| 17> %maxcore 5000
| 18>
| 19> %pal
| 20> nprocs = 24
| 21> end
| 22>
| 23>
| 24>                          ****END OF INPUT****

CARTESIAN COORDINATES (ANGSTROEM)
---------------------------------
  Li    -0.488800   -0.515380   -0.006590
  H     -0.559440    2.542330   -0.004360
  H     -2.175800   -1.825200    0.013290
  C     -0.088960    1.540880   -0.004800
  H     -1.560830   -2.268410    0.009340
  Cl     1.440040   -1.558390   -0.003180
  H      1.870230    0.325760   -0.002030
  S      1.563560    1.758400   -0.001670

 Total Charge           Charge          ....    0
 Multiplicity           Mult            ....    1
 Number of Electrons    NEL             ....   46
 Basis Dimension        Dim             ....  229

ORBITAL ENERGIES
----------------

  NO   OCC          E(Eh)            E(eV)
   0   2.0000    -102.820381     -2797.8848
   1   2.0000     -90.201229     -2454.5002
   2   2.0000     -10.686484      -290.7940
   3   2.0000      -9.826806      -267.4010
   4   2.0000      -8.405574      -228.7273
   5   2.0000      -7.463103      -203.0814
   6   2.0000      -7.462713      -203.0707
   7   2.0000      -7.462324      -203.0602
   8   2.0000      -6.250430      -170.0829
   9   2.0000      -6.249795      -170.0656
  10   2.0000      -6.248303      -170.0250
  11   2.0000      -2.166604       -58.9563
  12   2.0000      -0.927840       -25.2478
  13   2.0000      -0.840273       -22.8650
  14   2.0000      -0.689398       -18.7595
  15   2.0000      -0.557526       -15.1711
  16   2.0000      -0.495044       -13.4708
  17   2.0000      -0.479028       -13.0350
  18   2.0000      -0.382387       -10.4053
  19   2.0000      -0.346749        -9.4355
  20   2.0000      -0.336312        -9.1515
  21   2.0000      -0.317347        -8.6354
  22   2.0000      -0.299432        -8.1479
  23   0.0000      -0.054285        -1.4772
  24   0.0000       0.004274         0.1163
  25   0.0000       0.020812         0.5663
  26   0.0000       0.023826         0.6483
  27   0.0000       0.033030         0.8988

MULLIKEN ATOMIC CHARGES
-----------------------
   0 Li:    0.770081
   1 H :   -0.001821
   2 H :   -0.044638
   3 C :   -0.219905
   4 H :    0.076128
   5 Cl:   -0.757750
   6 H :    0.284938
   7 S :   -0.107034
Sum of atomic charges:    0.0000000

LOEWDIN ATOMIC CHARGES
----------------------
   0 Li:   -0.015387
   1 H :   -0.165641
   2 H :    0.092740
   3 C :   -0.351011
   4 H :    0.066317
   5 Cl:   -0.048724
   6 H :   -0.413611
   7 S :    0.835317

  Mayer bond orders larger than 0.100000
B(  0-Li,  3-C ) :   0.1186 B(  0-Li,  5-Cl) :   0.2156 B(  1-H ,  3-C ) :   1.1087
B(  2-H ,  4-H ) :   0.9576 B(  3-C ,  7-S ) :   1.6510 B(  5-Cl,  6-H ) :   0.1585
B(  6-H ,  7-S ) :   0.7692

MP2 TOTAL ENERGY:     -906.150856813 Eh
Dispersion correction           -0.006133379
FINAL SINGLE POINT ENERGY      -906.156990192043

DIPOLE MOMENT
-------------
                                X             Y             Z
Electronic contribution:      3.74261      -0.02283      -0.03076
Nuclear contribution   :     -5.38329       1.10078       0.02957
                        -----------------------------------------
Total Dipole Moment    :     -1.64069       1.07795      -0.00120
                        -----------------------------------------
Magnitude (a.u.)       :      1.96312
Magnitude (Debye)      :      4.98985

Rotational constants in cm-1:     0.253463     0.073830     0.057176
Rotational constants in MHz :  7598.615767  2213.361097  1714.083710

                             ****ORCA TERMINATED NORMALLY****
TOTAL RUN TIME: 0 days 0 hours 0 minutes 5 seconds 943 msec
