                         Program Version 4.2.0 -  RELEASE  -
|  1> #
|  2> # 136 ri-B2PLYP-D3BJ/Def2-TZVPPD
|  3> #
|  4> ! rijk ri-b2plyp d3bj def2-tzvppd def2/jk def2-tzvppd/c grid4 nofinalgrid
|  5>
|  6> *xyz 0 1
|  7> H         -0.64763        2.95877       -0.31431
|  8> H         -0.38809        2.29902       -0.56811
|  9> H         -0.46982        0.02713        1.23682
| 10> H         -0.44619       -2.23309       -1.25807
| 11> H          1.15514       -0.83076        1.35211
| 12> O          0.58676       -0.20120       -0.67466
| 13> C          0.25357       -0.64235        0.76247
| 14> B         -0.04374       -1.37752       -0.53625
| 15> *
| 16>
| 17> %maxcore 5000
| 18>
| 19> %pal
| 20> nprocs = 24
| 21> end
| 22>
| 23>
| 24>                          ****END OF INPUT****

CARTESIAN COORDINATES (ANGSTROEM)
---------------------------------
  H     -0.647630    2.958770   -0.314310
  H     -0.388090    2.299020   -0.568110
  H     -0.469820    0.027130    1.236820
  H     -0.446190   -2.233090   -1.258070
  H      1.155140   -0.830760    1.352110
  O      0.586760   -0.201200   -0.674660
  C      0.253570   -0.642350    0.762470
  B     -0.043740   -1.377520   -0.536250

 Total Charge           Charge          ....    0
 Multiplicity           Mult            ....    1
 Number of Electrons    NEL             ....   24
 Basis Dimension        Dim             ....  199

ORBITAL ENERGIES
----------------

  NO   OCC          E(Eh)            E(eV)
   0   2.0000     -19.756083      -537.5903
   1   2.0000     -10.663167      -290.1595
   2   2.0000      -7.144072      -194.4001
   3   2.0000      -1.186138       -32.2765
   4   2.0000      -0.765996       -20.8438
   5   2.0000      -0.590136       -16.0584
   6   2.0000      -0.543629       -14.7929
   7   2.0000      -0.531016       -14.4497
   8   2.0000      -0.485203       -13.2030
   9   2.0000      -0.454442       -12.3660
  10   2.0000      -0.393961       -10.7202
  11   2.0000      -0.353297        -9.6137
  12   0.0000       0.022978         0.6253
  13   0.0000       0.028152         0.7660
  14   0.0000       0.046618         1.2685
  15   0.0000       0.060500         1.6463
  16   0.0000       0.085386         2.3235

MULLIKEN ATOMIC CHARGES
-----------------------
   0 H :    0.025206
   1 H :   -0.033063
   2 H :    0.064364
   3 H :    0.039727
   4 H :    0.045801
   5 O :   -0.476310
   6 C :    0.044162
   7 B :    0.290112
Sum of atomic charges:   -0.0000000

LOEWDIN ATOMIC CHARGES
----------------------
   0 H :    0.032139
   1 H :    0.011806
   2 H :   -0.017588
   3 H :    0.022158
   4 H :   -0.013298
   5 O :    0.014959
   6 C :    0.135044
   7 B :   -0.185220

  Mayer bond orders larger than 0.100000
B(  0-H ,  1-H ) :   1.0035 B(  2-H ,  6-C ) :   0.9912 B(  3-H ,  7-B ) :   0.9696
B(  4-H ,  6-C ) :   1.0176 B(  5-O ,  6-C ) :   0.7565 B(  5-O ,  7-B ) :   1.2381
B(  6-C ,  7-B ) :   0.9963

MP2 TOTAL ENERGY:     -141.079912508 Eh
Dispersion correction           -0.002276646
FINAL SINGLE POINT ENERGY      -141.082189153770

DIPOLE MOMENT
-------------
                                X             Y             Z
Electronic contribution:      1.48882      -5.69382      -1.03143
Nuclear contribution   :     -1.71035       5.24617       1.44476
                        -----------------------------------------
Total Dipole Moment    :     -0.22153      -0.44765       0.41333
                        -----------------------------------------
Magnitude (a.u.)       :      0.64832
Magnitude (Debye)      :      1.64789

Rotational constants in cm-1:     0.613602     0.430998     0.306642
Rotational constants in MHz : 18395.316675 12920.983545  9192.908699

                             ****ORCA TERMINATED NORMALLY****
TOTAL RUN TIME: 0 days 0 hours 0 minutes 4 seconds 565 msec
