                         Program Version 4.2.0 -  RELEASE  -
|  1> #
|  2> # 138 ri-B2PLYP-D3BJ/Def2-TZVPPD
|  3> #
|  4> ! rijk ri-b2plyp d3bj def2-tzvppd def2/jk def2-tzvppd/c grid4 nofinalgrid
|  5>
|  6> *xyz 0 1
|  7> H          0.64849       -1.47778       -0.13722
|  8> H         -0.62659       -0.18590       -3.09890
|  9> H         -0.40094       -0.71477       -2.61128
| 10> H          0.74472        0.82794        2.20080
| 11> H          0.41684       -1.04544        0.48242
| 12> H         -0.86873        0.85706        2.13389
| 13> Na         0.12711        1.09566       -0.53418
| 14> N         -0.04090        0.64323        1.56447
| 15> *
| 16>
| 17> %maxcore 5000
| 18>
| 19> %pal
| 20> nprocs = 24
| 21> end
| 22>
| 23>
| 24>                          ****END OF INPUT****

CARTESIAN COORDINATES (ANGSTROEM)
---------------------------------
  H      0.648490   -1.477780   -0.137220
  H     -0.626590   -0.185900   -3.098900
  H     -0.400940   -0.714770   -2.611280
  H      0.744720    0.827940    2.200800
  H      0.416840   -1.045440    0.482420
  H     -0.868730    0.857060    2.133890
  Na     0.127110    1.095660   -0.534180
  N     -0.040900    0.643230    1.564470

 Total Charge           Charge          ....    0
 Multiplicity           Mult            ....    1
 Number of Electrons    NEL             ....   24
 Basis Dimension        Dim             ....  174

ORBITAL ENERGIES
----------------

  NO   OCC          E(Eh)            E(eV)
   0   2.0000     -39.304855     -1069.5395
   1   2.0000     -14.705520      -400.1575
   2   2.0000      -2.448382       -66.6239
   3   2.0000      -1.294847       -35.2346
   4   2.0000      -1.294302       -35.2198
   5   2.0000      -1.291491       -35.1433
   6   2.0000      -0.818307       -22.2673
   7   2.0000      -0.544615       -14.8197
   8   2.0000      -0.467417       -12.7191
   9   2.0000      -0.417331       -11.3562
  10   2.0000      -0.291129        -7.9220
  11   2.0000      -0.199582        -5.4309
  12   0.0000      -0.022179        -0.6035
  13   0.0000       0.007826         0.2130
  14   0.0000       0.014579         0.3967
  15   0.0000       0.021372         0.5816
  16   0.0000       0.043713         1.1895

MULLIKEN ATOMIC CHARGES
-----------------------
   0 H :   -0.152372
   1 H :   -0.000046
   2 H :    0.015009
   3 H :   -0.014363
   4 H :    0.108393
   5 H :   -0.050179
   6 Na:    0.815971
   7 N :   -0.722412
Sum of atomic charges:    0.0000000

LOEWDIN ATOMIC CHARGES
----------------------
   0 H :    0.038980
   1 H :    0.048442
   2 H :    0.033403
   3 H :   -0.298212
   4 H :   -0.061076
   5 H :   -0.299734
   6 Na:    0.519235
   7 N :    0.018962

  Mayer bond orders larger than 0.100000
B(  0-H ,  4-H ) :   1.0271 B(  1-H ,  2-H ) :   0.9886 B(  3-H ,  7-N ) :   1.2214
B(  5-H ,  7-N ) :   1.2697 B(  6-Na,  7-N ) :   0.2503

MP2 TOTAL ENERGY:     -220.489318932 Eh
Dispersion correction           -0.002624521
FINAL SINGLE POINT ENERGY      -220.491943453314

DIPOLE MOMENT
-------------
                                X             Y             Z
Electronic contribution:      0.54724       7.01556      -1.00477
Nuclear contribution   :     -0.44551      -6.18803      -1.41111
                        -----------------------------------------
Total Dipole Moment    :      0.10172       0.82753      -2.41588
                        -----------------------------------------
Magnitude (a.u.)       :      2.55570
Magnitude (Debye)      :      6.49608

Rotational constants in cm-1:     0.993150     0.247328     0.211706
Rotational constants in MHz : 29773.882147  7414.712908  6346.774487

                             ****ORCA TERMINATED NORMALLY****
TOTAL RUN TIME: 0 days 0 hours 0 minutes 4 seconds 249 msec
