                         Program Version 4.2.0 -  RELEASE  -
|  1> #
|  2> # 143 ri-B2PLYP-D3BJ/Def2-TZVPPD
|  3> #
|  4> ! rijk ri-b2plyp d3bj def2-tzvppd def2/jk def2-tzvppd/c grid4 nofinalgrid
|  5>
|  6> *xyz 0 1
|  7> H          1.52165        0.00105        0.54476
|  8> C         -0.07322       -0.00002       -0.82132
|  9> C         -0.09157        0.00017        1.71374
| 10> H          0.24008        0.90261       -1.36729
| 11> N          0.49648       -0.00048        0.54416
| 12> H          0.26500       -0.88652       -1.37867
| 13> H         -1.19216       -0.00126        1.49873
| 14> H         -1.16627       -0.01555       -0.73412
| 15> *
| 16>
| 17> %maxcore 5000
| 18>
| 19> %pal
| 20> nprocs = 24
| 21> end
| 22>
| 23>
| 24>                          ****END OF INPUT****

CARTESIAN COORDINATES (ANGSTROEM)
---------------------------------
  H      1.521650    0.001050    0.544760
  C     -0.073220   -0.000020   -0.821320
  C     -0.091570    0.000170    1.713740
  H      0.240080    0.902610   -1.367290
  N      0.496480   -0.000480    0.544160
  H      0.265000   -0.886520   -1.378670
  H     -1.192160   -0.001260    1.498730
  H     -1.166270   -0.015550   -0.734120

 Total Charge           Charge          ....    0
 Multiplicity           Mult            ....    1
 Number of Electrons    NEL             ....   24
 Basis Dimension        Dim             ....  196

ORBITAL ENERGIES
----------------

  NO   OCC          E(Eh)            E(eV)
   0   2.0000     -14.894806      -405.3083
   1   2.0000     -10.664807      -290.2041
   2   2.0000     -10.626301      -289.1564
   3   2.0000      -1.080057       -29.3898
   4   2.0000      -0.832717       -22.6594
   5   2.0000      -0.712778       -19.3957
   6   2.0000      -0.567657       -15.4467
   7   2.0000      -0.528411       -14.3788
   8   2.0000      -0.508117       -13.8266
   9   2.0000      -0.468182       -12.7399
  10   2.0000      -0.380230       -10.3466
  11   2.0000      -0.263917        -7.1816
  12   0.0000       0.028024         0.7626
  13   0.0000       0.045570         1.2400
  14   0.0000       0.057058         1.5526
  15   0.0000       0.075458         2.0533
  16   0.0000       0.098910         2.6915

MULLIKEN ATOMIC CHARGES
-----------------------
   0 H :    0.103859
   1 C :   -0.215668
   2 C :   -0.110130
   3 H :    0.107752
   4 N :   -0.071618
   5 H :    0.106730
   6 H :   -0.030356
   7 H :    0.109432
Sum of atomic charges:   -0.0000000

LOEWDIN ATOMIC CHARGES
----------------------
   0 H :   -0.059780
   1 C :    0.138335
   2 C :    0.081002
   3 H :   -0.004863
   4 N :   -0.030154
   5 H :   -0.004902
   6 H :   -0.111329
   7 H :   -0.008310

  Mayer bond orders larger than 0.100000
B(  0-H ,  4-N ) :   1.0306 B(  1-C ,  3-H ) :   1.0116 B(  1-C ,  4-N ) :   0.8401
B(  1-C ,  5-H ) :   1.0112 B(  1-C ,  7-H ) :   0.9863 B(  2-C ,  4-N ) :   1.5886
B(  2-C ,  6-H ) :   1.0327

MP2 TOTAL ENERGY:     -133.816912526 Eh
Dispersion correction           -0.002944205
FINAL SINGLE POINT ENERGY      -133.819856731292

DIPOLE MOMENT
-------------
                                X             Y             Z
Electronic contribution:      0.90776      -0.00078       1.69238
Nuclear contribution   :     -0.81448       0.00081      -3.18683
                        -----------------------------------------
Total Dipole Moment    :      0.09328       0.00003      -1.49445
                        -----------------------------------------
Magnitude (a.u.)       :      1.49736
Magnitude (Debye)      :      3.80599

Rotational constants in cm-1:     1.686117     0.341111     0.300010
Rotational constants in MHz : 50548.520534 10226.261318  8994.065933

                             ****ORCA TERMINATED NORMALLY****
TOTAL RUN TIME: 0 days 0 hours 0 minutes 4 seconds 897 msec
