                         Program Version 4.2.0 -  RELEASE  -
|  1> #
|  2> # 167_li ri-B2PLYP-D3BJ/Def2-TZVPPD
|  3> #
|  4> ! rijk ri-b2plyp d3bj def2-tzvppd def2/jk def2-tzvppd/c grid4 nofinalgrid
|  5>
|  6> *xyz 0 1
|  7> Li         0.00000        0.00000        0.80730
|  8> H          0.00000        0.00000       -0.80730
|  9> *
| 10>
| 11> %maxcore 5000
| 12>
| 13> %pal
| 14> nprocs = 24
| 15> end
| 16>
| 17>
| 18>                          ****END OF INPUT****

CARTESIAN COORDINATES (ANGSTROEM)
---------------------------------
  Li     0.000000    0.000000    0.807300
  H      0.000000    0.000000   -0.807300

 Total Charge           Charge          ....    0
 Multiplicity           Mult            ....    1
 Number of Electrons    NEL             ....    4
 Basis Dimension        Dim             ....   39

ORBITAL ENERGIES
----------------

  NO   OCC          E(Eh)            E(eV)
   0   2.0000      -2.190270       -59.6003
   1   2.0000      -0.237936        -6.4746
   2   0.0000      -0.026655        -0.7253
   3   0.0000       0.014265         0.3882
   4   0.0000       0.014265         0.3882
   5   0.0000       0.052386         1.4255
   6   0.0000       0.091979         2.5029

MULLIKEN ATOMIC CHARGES
-----------------------
   0 Li:    0.602575
   1 H :   -0.602575
Sum of atomic charges:   -0.0000000

LOEWDIN ATOMIC CHARGES
----------------------
   0 Li:    0.298935
   1 H :   -0.298935

  Mayer bond orders larger than 0.100000
B(  0-Li,  1-H ) :   0.6408

MP2 TOTAL ENERGY:       -8.066919272 Eh
Dispersion correction           -0.000198732
FINAL SINGLE POINT ENERGY        -8.067118003290

DIPOLE MOMENT
-------------
                                X             Y             Z
Electronic contribution:     -0.00000      -0.00000       3.80611
Nuclear contribution   :      0.00000       0.00000      -1.50351
                        -----------------------------------------
Total Dipole Moment    :     -0.00000      -0.00000       2.30260
                        -----------------------------------------
Magnitude (a.u.)       :      2.30260
Magnitude (Debye)      :      5.85275

Rotational constants in cm-1:     0.000000     7.346778     7.346778
Rotational constants in MHz :     0.000000 220250.867747 220250.867747

                             ****ORCA TERMINATED NORMALLY****
TOTAL RUN TIME: 0 days 0 hours 0 minutes 3 seconds 627 msec
