                         Program Version 4.2.0 -  RELEASE  -
|  1> #
|  2> # 168_be ri-B2PLYP-D3BJ/Def2-TZVPPD
|  3> #
|  4> ! rijk ri-b2plyp d3bj def2-tzvppd def2/jk def2-tzvppd/c grid4 nofinalgrid
|  5>
|  6> *xyz 0 1
|  7> Be         0.00000        0.00000        0.00000
|  8> H          0.00000        0.00000       -1.34402
|  9> H          0.00000        0.00000        1.34402
| 10> *
| 11>
| 12> %maxcore 5000
| 13>
| 14> %pal
| 15> nprocs = 24
| 16> end
| 17>
| 18>
| 19>                          ****END OF INPUT****

CARTESIAN COORDINATES (ANGSTROEM)
---------------------------------
  Be     0.000000    0.000000    0.000000
  H      0.000000    0.000000   -1.344020
  H      0.000000    0.000000    1.344020

 Total Charge           Charge          ....    0
 Multiplicity           Mult            ....    1
 Number of Electrons    NEL             ....    6
 Basis Dimension        Dim             ....   56

ORBITAL ENERGIES
----------------

  NO   OCC          E(Eh)            E(eV)
   0   2.0000      -4.308593      -117.2428
   1   2.0000      -0.408966       -11.1285
   2   2.0000      -0.370512       -10.0821
   3   0.0000      -0.000747        -0.0203
   4   0.0000      -0.000747        -0.0203
   5   0.0000       0.041661         1.1337
   6   0.0000       0.047769         1.2999
   7   0.0000       0.084725         2.3055

MULLIKEN ATOMIC CHARGES
-----------------------
   0 Be:    0.145788
   1 H :   -0.072894
   2 H :   -0.072894
Sum of atomic charges:   -0.0000000

LOEWDIN ATOMIC CHARGES
----------------------
   0 Be:    0.363075
   1 H :   -0.181537
   2 H :   -0.181537

  Mayer bond orders larger than 0.100000
B(  0-Be,  1-H ) :   0.9753 B(  0-Be,  2-H ) :   0.9753 B(  1-H ,  2-H ) :   0.1095

MP2 TOTAL ENERGY:      -15.893974518 Eh
Dispersion correction           -0.000418396
FINAL SINGLE POINT ENERGY       -15.894392914136

DIPOLE MOMENT
-------------
                                X             Y             Z
Electronic contribution:      0.00000       0.00000      -0.00000
Nuclear contribution   :      0.00000       0.00000       0.00000
                        -----------------------------------------
Total Dipole Moment    :      0.00000       0.00000      -0.00000
                        -----------------------------------------
Magnitude (a.u.)       :      0.00000
Magnitude (Debye)      :      0.00000

Rotational constants in cm-1:     0.000000     4.629082     4.629082
Rotational constants in MHz :     0.000000 138776.398767 138776.398767

                             ****ORCA TERMINATED NORMALLY****
TOTAL RUN TIME: 0 days 0 hours 0 minutes 2 seconds 848 msec
