                         Program Version 4.2.0 -  RELEASE  -
|  1> #
|  2> # 169_b ri-B2PLYP-D3BJ/Def2-TZVPPD
|  3> #
|  4> ! rijk ri-b2plyp d3bj def2-tzvppd def2/jk def2-tzvppd/c grid4 nofinalgrid
|  5>
|  6> *xyz 0 1
|  7> B          0.00000        0.00000        0.00000
|  8> H          0.60006        1.03933        0.00000
|  9> H          0.60006       -1.03933        0.00000
| 10> H         -1.20012        0.00000        0.00000
| 11> *
| 12>
| 13> %maxcore 5000
| 14>
| 15> %pal
| 16> nprocs = 24
| 17> end
| 18>
| 19>
| 20>                          ****END OF INPUT****

CARTESIAN COORDINATES (ANGSTROEM)
---------------------------------
  B      0.000000    0.000000    0.000000
  H      0.600060    1.039330    0.000000
  H      0.600060   -1.039330    0.000000
  H     -1.200120    0.000000    0.000000

 Total Charge           Charge          ....    0
 Multiplicity           Mult            ....    1
 Number of Electrons    NEL             ....    8
 Basis Dimension        Dim             ....   88

ORBITAL ENERGIES
----------------

  NO   OCC          E(Eh)            E(eV)
   0   2.0000      -7.122092      -193.8020
   1   2.0000      -0.593906       -16.1610
   2   2.0000      -0.414765       -11.2863
   3   2.0000      -0.414765       -11.2863
   4   0.0000      -0.022778        -0.6198
   5   0.0000       0.026864         0.7310
   6   0.0000       0.103268         2.8101
   7   0.0000       0.103273         2.8102
   8   0.0000       0.115581         3.1451

MULLIKEN ATOMIC CHARGES
-----------------------
   0 B :   -0.015674
   1 H :    0.005294
   2 H :    0.005294
   3 H :    0.005086
Sum of atomic charges:   -0.0000000

LOEWDIN ATOMIC CHARGES
----------------------
   0 B :    0.249389
   1 H :   -0.083128
   2 H :   -0.083128
   3 H :   -0.083132

  Mayer bond orders larger than 0.100000
B(  0-B ,  1-H ) :   0.9964 B(  0-B ,  2-H ) :   0.9964 B(  0-B ,  3-H ) :   0.9964

MP2 TOTAL ENERGY:      -26.580857446 Eh
Dispersion correction           -0.000600753
FINAL SINGLE POINT ENERGY       -26.581458198453

DIPOLE MOMENT
-------------
                                X             Y             Z
Electronic contribution:     -0.00000      -0.00000       0.00000
Nuclear contribution   :      0.00000       0.00000       0.00000
                        -----------------------------------------
Total Dipole Moment    :     -0.00000      -0.00000       0.00000
                        -----------------------------------------
Magnitude (a.u.)       :      0.00000
Magnitude (Debye)      :      0.00000

Rotational constants in cm-1:     7.741042     7.740977     3.870505
Rotational constants in MHz : 232070.613118 232068.644801 116034.814478

                             ****ORCA TERMINATED NORMALLY****
TOTAL RUN TIME: 0 days 0 hours 0 minutes 3 seconds 627 msec
