                         Program Version 4.2.0 -  RELEASE  -
|  1> #
|  2> # 170_c ri-B2PLYP-D3BJ/Def2-TZVPPD
|  3> #
|  4> ! rijk ri-b2plyp d3bj def2-tzvppd def2/jk def2-tzvppd/c grid4 nofinalgrid
|  5>
|  6> *xyz 0 1
|  7> C          0.00000        0.00000        0.00000
|  8> H          0.63307        0.63307       -0.63307
|  9> H         -0.63307       -0.63307       -0.63307
| 10> H          0.63307       -0.63307        0.63307
| 11> H         -0.63307        0.63307        0.63307
| 12> *
| 13>
| 14> %maxcore 5000
| 15>
| 16> %pal
| 17> nprocs = 24
| 18> end
| 19>
| 20>
| 21>                          ****END OF INPUT****

CARTESIAN COORDINATES (ANGSTROEM)
---------------------------------
  C      0.000000    0.000000    0.000000
  H      0.633070    0.633070   -0.633070
  H     -0.633070   -0.633070   -0.633070
  H      0.633070   -0.633070    0.633070
  H     -0.633070    0.633070    0.633070

 Total Charge           Charge          ....    0
 Multiplicity           Mult            ....    1
 Number of Electrons    NEL             ....   10
 Basis Dimension        Dim             ....  105

ORBITAL ENERGIES
----------------

  NO   OCC          E(Eh)            E(eV)
   0   2.0000     -10.596672      -288.3501
   1   2.0000      -0.796086       -21.6626
   2   2.0000      -0.455793       -12.4028
   3   2.0000      -0.455793       -12.4028
   4   2.0000      -0.455793       -12.4028
   5   0.0000       0.038361         1.0439
   6   0.0000       0.125125         3.4048
   7   0.0000       0.125125         3.4048
   8   0.0000       0.125125         3.4048
   9   0.0000       0.150276         4.0892

MULLIKEN ATOMIC CHARGES
-----------------------
   0 C :   -0.349252
   1 H :    0.087316
   2 H :    0.087314
   3 H :    0.087315
   4 H :    0.087308
Sum of atomic charges:    0.0000000

LOEWDIN ATOMIC CHARGES
----------------------
   0 C :    0.250429
   1 H :   -0.062607
   2 H :   -0.062607
   3 H :   -0.062607
   4 H :   -0.062607

  Mayer bond orders larger than 0.100000
B(  0-C ,  1-H ) :   0.9893 B(  0-C ,  2-H ) :   0.9893 B(  0-C ,  3-H ) :   0.9893
B(  0-C ,  4-H ) :   0.9893

MP2 TOTAL ENERGY:      -40.487222237 Eh
Dispersion correction           -0.000790989
FINAL SINGLE POINT ENERGY       -40.488013226195

DIPOLE MOMENT
-------------
                                X             Y             Z
Electronic contribution:      0.00000       0.00000       0.00000
Nuclear contribution   :      0.00000       0.00000       0.00000
                        -----------------------------------------
Total Dipole Moment    :      0.00000       0.00000       0.00000
                        -----------------------------------------
Magnitude (a.u.)       :      0.00000
Magnitude (Debye)      :      0.00000

Rotational constants in cm-1:     5.216064     5.216064     5.216064
Rotational constants in MHz : 156373.665933 156373.665933 156373.665933

                             ****ORCA TERMINATED NORMALLY****
TOTAL RUN TIME: 0 days 0 hours 0 minutes 3 seconds 282 msec
