                         Program Version 4.2.0 -  RELEASE  -
|  1> #
|  2> # 171_n ri-B2PLYP-D3BJ/Def2-TZVPPD
|  3> #
|  4> ! rijk ri-b2plyp d3bj def2-tzvppd def2/jk def2-tzvppd/c grid4 nofinalgrid
|  5>
|  6> *xyz 0 1
|  7> N          0.00000        0.00000        0.55227
|  8> N          0.00000        0.00000       -0.55227
|  9> *
| 10>
| 11> %maxcore 5000
| 12>
| 13> %pal
| 14> nprocs = 24
| 15> end
| 16>
| 17>
| 18>                          ****END OF INPUT****

CARTESIAN COORDINATES (ANGSTROEM)
---------------------------------
  N      0.000000    0.000000    0.552270
  N      0.000000    0.000000   -0.552270

 Total Charge           Charge          ....    0
 Multiplicity           Mult            ....    1
 Number of Electrons    NEL             ....   14
 Basis Dimension        Dim             ....   74

ORBITAL ENERGIES
----------------

  NO   OCC          E(Eh)            E(eV)
   0   2.0000     -14.954119      -406.9223
   1   2.0000     -14.951707      -406.8566
   2   2.0000      -1.269146       -34.5352
   3   2.0000      -0.653054       -17.7705
   4   2.0000      -0.530326       -14.4309
   5   2.0000      -0.530326       -14.4309
   6   2.0000      -0.519800       -14.1445
   7   0.0000       0.039292         1.0692
   8   0.0000       0.039292         1.0692
   9   0.0000       0.083045         2.2598
  10   0.0000       0.116462         3.1691
  11   0.0000       0.256350         6.9756

MULLIKEN ATOMIC CHARGES
-----------------------
   0 N :   -0.000009
   1 N :    0.000009
Sum of atomic charges:    0.0000000

LOEWDIN ATOMIC CHARGES
----------------------
   0 N :   -0.000000
   1 N :    0.000000

  Mayer bond orders larger than 0.100000
B(  0-N ,  1-N ) :   2.6450

MP2 TOTAL ENERGY:     -109.503869320 Eh
Dispersion correction           -0.000329001
FINAL SINGLE POINT ENERGY      -109.504198321006

DIPOLE MOMENT
-------------
                                X             Y             Z
Electronic contribution:     -0.00000      -0.00000      -0.00000
Nuclear contribution   :      0.00000       0.00000       0.00000
                        -----------------------------------------
Total Dipole Moment    :     -0.00000      -0.00000      -0.00000
                        -----------------------------------------
Magnitude (a.u.)       :      0.00000
Magnitude (Debye)      :      0.00000

Rotational constants in cm-1:     0.000000     1.972963     1.972963
Rotational constants in MHz :     0.000000 59147.933340 59147.933340

                             ****ORCA TERMINATED NORMALLY****
TOTAL RUN TIME: 0 days 0 hours 0 minutes 3 seconds 539 msec
