                         Program Version 4.2.0 -  RELEASE  -
|  1> #
|  2> # 172_o ri-B2PLYP-D3BJ/Def2-TZVPPD
|  3> #
|  4> ! rijk ri-b2plyp d3bj def2-tzvppd def2/jk def2-tzvppd/c grid4 nofinalgrid
|  5>
|  6> *xyz 0 3
|  7> O          0.00000        0.00000        0.61122
|  8> O          0.00000        0.00000       -0.61122
|  9> *
| 10>
| 11> %maxcore 5000
| 12>
| 13> %pal
| 14> nprocs = 24
| 15> end
| 16>
| 17>
| 18>                          ****END OF INPUT****

CARTESIAN COORDINATES (ANGSTROEM)
---------------------------------
  O      0.000000    0.000000    0.611220
  O      0.000000    0.000000   -0.611220

 Total Charge           Charge          ....    0
 Multiplicity           Mult            ....    3
 Number of Electrons    NEL             ....   16
 Basis Dimension        Dim             ....   80

ORBITAL ENERGIES
----------------
                 SPIN UP ORBITALS
  NO   OCC          E(Eh)            E(eV)
   0   1.0000     -19.908369      -541.7343
   1   1.0000     -19.908022      -541.7248
   2   1.0000      -1.468301       -39.9545
   3   1.0000      -1.000326       -27.2203
   4   1.0000      -0.680449       -18.5159
   5   1.0000      -0.680449       -18.5159
   6   1.0000      -0.643610       -17.5135
   7   1.0000      -0.422785       -11.5046
   8   1.0000      -0.422785       -11.5046
   9   0.0000       0.060004         1.6328
  10   0.0000       0.078653         2.1403
  11   0.0000       0.092894         2.5278
  12   0.0000       0.092894         2.5278
  13   0.0000       0.138862         3.7786

                 SPIN DOWN ORBITALS
  NO   OCC          E(Eh)            E(eV)
   0   1.0000     -19.868701      -540.6548
   1   1.0000     -19.868037      -540.6368
   2   1.0000      -1.383407       -37.6444
   3   1.0000      -0.863400       -23.4943
   4   1.0000      -0.596312       -16.2265
   5   1.0000      -0.512295       -13.9403
   6   1.0000      -0.512295       -13.9403
   7   0.0000      -0.040273        -1.0959
   8   0.0000      -0.040273        -1.0959
   9   0.0000       0.062895         1.7115
  10   0.0000       0.082163         2.2358
  11   0.0000       0.098258         2.6737

MULLIKEN ATOMIC CHARGES AND SPIN POPULATIONS
--------------------------------------------
   0 O :    0.000000    1.000000
   1 O :   -0.000000    1.000000
Sum of atomic charges         :   -0.0000000

LOEWDIN ATOMIC CHARGES AND SPIN POPULATIONS
-------------------------------------------
   0 O :    0.000000    1.000000
   1 O :   -0.000000    1.000000

  Mayer bond orders larger than 0.100000
B(  0-O ,  1-O ) :   1.6941

MP2 TOTAL ENERGY:     -150.300400283 Eh
Dispersion correction           -0.000195872
FINAL SINGLE POINT ENERGY      -150.300596155216

DIPOLE MOMENT
-------------
                                X             Y             Z
Electronic contribution:      0.00000       0.00000      -0.00000
Nuclear contribution   :      0.00000       0.00000       0.00000
                        -----------------------------------------
Total Dipole Moment    :      0.00000       0.00000      -0.00000
                        -----------------------------------------
Magnitude (a.u.)       :      0.00000
Magnitude (Debye)      :      0.00000

Rotational constants in cm-1:     0.000000     1.410194     1.410194
Rotational constants in MHz :     0.000000 42276.561443 42276.561443

                             ****ORCA TERMINATED NORMALLY****
TOTAL RUN TIME: 0 days 0 hours 0 minutes 3 seconds 54 msec
