                         Program Version 4.2.0 -  RELEASE  -
|  1> #
|  2> # 173_f ri-B2PLYP-D3BJ/Def2-TZVPPD
|  3> #
|  4> ! rijk ri-b2plyp d3bj def2-tzvppd def2/jk def2-tzvppd/c grid4 nofinalgrid
|  5>
|  6> *xyz 0 1
|  7> F          0.00000        0.00000        0.71109
|  8> F          0.00000        0.00000       -0.71109
|  9> *
| 10>
| 11> %maxcore 5000
| 12>
| 13> %pal
| 14> nprocs = 24
| 15> end
| 16>
| 17>
| 18>                          ****END OF INPUT****

CARTESIAN COORDINATES (ANGSTROEM)
---------------------------------
  F      0.000000    0.000000    0.711090
  F      0.000000    0.000000   -0.711090

 Total Charge           Charge          ....    0
 Multiplicity           Mult            ....    1
 Number of Electrons    NEL             ....   18
 Basis Dimension        Dim             ....   80

ORBITAL ENERGIES
----------------

  NO   OCC          E(Eh)            E(eV)
   0   2.0000     -25.483539      -693.4424
   1   2.0000     -25.483430      -693.4394
   2   2.0000      -1.521930       -41.4138
   3   2.0000      -1.278701       -34.7952
   4   2.0000      -0.668996       -18.2043
   5   2.0000      -0.657360       -17.8877
   6   2.0000      -0.657360       -17.8877
   7   2.0000      -0.526394       -14.3239
   8   2.0000      -0.526394       -14.3239
   9   0.0000      -0.073450        -1.9987
  10   0.0000       0.089050         2.4232
  11   0.0000       0.102653         2.7933
  12   0.0000       0.115170         3.1339
  13   0.0000       0.115170         3.1339

MULLIKEN ATOMIC CHARGES
-----------------------
   0 F :   -0.000000
   1 F :    0.000000
Sum of atomic charges:   -0.0000000

LOEWDIN ATOMIC CHARGES
----------------------
   0 F :   -0.000000
   1 F :    0.000000

  Mayer bond orders larger than 0.100000
B(  0-F ,  1-F ) :   0.8675

MP2 TOTAL ENERGY:     -199.495810571 Eh
Dispersion correction           -0.000115353
FINAL SINGLE POINT ENERGY      -199.495925923914

DIPOLE MOMENT
-------------
                                X             Y             Z
Electronic contribution:      0.00000      -0.00000       0.00000
Nuclear contribution   :      0.00000       0.00000       0.00000
                        -----------------------------------------
Total Dipole Moment    :      0.00000      -0.00000       0.00000
                        -----------------------------------------
Magnitude (a.u.)       :      0.00000
Magnitude (Debye)      :      0.00000

Rotational constants in cm-1:     0.000000     0.877425     0.877425
Rotational constants in MHz :     0.000000 26304.532186 26304.532186

                             ****ORCA TERMINATED NORMALLY****
TOTAL RUN TIME: 0 days 0 hours 0 minutes 2 seconds 893 msec
