                         Program Version 4.2.0 -  RELEASE  -
|  1> #
|  2> # 174_na ri-B2PLYP-D3BJ/Def2-TZVPPD
|  3> #
|  4> ! rijk ri-b2plyp d3bj def2-tzvppd def2/jk def2-tzvppd/c grid4 nofinalgrid
|  5>
|  6> *xyz 0 1
|  7> Na         0.00000        0.00000        0.94863
|  8> H          0.00000        0.00000       -0.94863
|  9> *
| 10>
| 11> %maxcore 5000
| 12>
| 13> %pal
| 14> nprocs = 24
| 15> end
| 16>
| 17>
| 18>                          ****END OF INPUT****

CARTESIAN COORDINATES (ANGSTROEM)
---------------------------------
  Na     0.000000    0.000000    0.948630
  H      0.000000    0.000000   -0.948630

 Total Charge           Charge          ....    0
 Multiplicity           Mult            ....    1
 Number of Electrons    NEL             ....   12
 Basis Dimension        Dim             ....   52

ORBITAL ENERGIES
----------------

  NO   OCC          E(Eh)            E(eV)
   0   2.0000     -39.313322     -1069.7699
   1   2.0000      -2.456411       -66.8423
   2   2.0000      -1.301624       -35.4190
   3   2.0000      -1.301624       -35.4190
   4   2.0000      -1.299260       -35.3547
   5   2.0000      -0.221279        -6.0213
   6   0.0000      -0.031498        -0.8571
   7   0.0000       0.007679         0.2090
   8   0.0000       0.007679         0.2090
   9   0.0000       0.026765         0.7283
  10   0.0000       0.049907         1.3580

MULLIKEN ATOMIC CHARGES
-----------------------
   0 Na:    0.505270
   1 H :   -0.505270
Sum of atomic charges:   -0.0000000

LOEWDIN ATOMIC CHARGES
----------------------
   0 Na:    0.309160
   1 H :   -0.309160

  Mayer bond orders larger than 0.100000
B(  0-Na,  1-H ) :   0.7508

MP2 TOTAL ENERGY:     -162.775562689 Eh
Dispersion correction           -0.000255298
FINAL SINGLE POINT ENERGY      -162.775817986448

DIPOLE MOMENT
-------------
                                X             Y             Z
Electronic contribution:      0.00000      -0.00000       4.31497
Nuclear contribution   :      0.00000       0.00000      -1.77816
                        -----------------------------------------
Total Dipole Moment    :      0.00000      -0.00000       2.53681
                        -----------------------------------------
Magnitude (a.u.)       :      2.53681
Magnitude (Debye)      :      6.44806

Rotational constants in cm-1:     0.000000     4.849743     4.849743
Rotational constants in MHz :     0.000000 145391.644375 145391.644375

                             ****ORCA TERMINATED NORMALLY****
TOTAL RUN TIME: 0 days 0 hours 0 minutes 3 seconds 763 msec
