                         Program Version 4.2.0 -  RELEASE  -
|  1> #
|  2> # 176_al ri-B2PLYP-D3BJ/Def2-TZVPPD
|  3> #
|  4> ! rijk ri-b2plyp d3bj def2-tzvppd def2/jk def2-tzvppd/c grid4 nofinalgrid
|  5>
|  6> *xyz 0 1
|  7> Al         0.00000        0.00000        0.00000
|  8> H          0.80046       -1.38644        0.00000
|  9> H          0.80046        1.38644        0.00000
| 10> H         -1.60093        0.00000        0.00000
| 11> *
| 12>
| 13> %maxcore 5000
| 14>
| 15> %pal
| 16> nprocs = 24
| 17> end
| 18>
| 19>
| 20>                          ****END OF INPUT****

CARTESIAN COORDINATES (ANGSTROEM)
---------------------------------
  Al     0.000000    0.000000    0.000000
  H      0.800460   -1.386440    0.000000
  H      0.800460    1.386440    0.000000
  H     -1.600930    0.000000    0.000000

 Total Charge           Charge          ....    0
 Multiplicity           Mult            ....    1
 Number of Electrons    NEL             ....   16
 Basis Dimension        Dim             ....   99

ORBITAL ENERGIES
----------------

  NO   OCC          E(Eh)            E(eV)
   0   2.0000     -57.054093     -1552.5208
   1   2.0000      -4.450153      -121.0948
   2   2.0000      -2.908392       -79.1414
   3   2.0000      -2.901893       -78.9645
   4   2.0000      -2.901893       -78.9645
   5   2.0000      -0.482636       -13.1332
   6   2.0000      -0.357972        -9.7409
   7   2.0000      -0.357972        -9.7409
   8   0.0000      -0.028296        -0.7700
   9   0.0000       0.028417         0.7733
  10   0.0000       0.058445         1.5904
  11   0.0000       0.066079         1.7981
  12   0.0000       0.066083         1.7982

MULLIKEN ATOMIC CHARGES
-----------------------
   0 Al:    0.543500
   1 H :   -0.181178
   2 H :   -0.181178
   3 H :   -0.181144
Sum of atomic charges:    0.0000000

LOEWDIN ATOMIC CHARGES
----------------------
   0 Al:    0.638830
   1 H :   -0.212945
   2 H :   -0.212945
   3 H :   -0.212940

  Mayer bond orders larger than 0.100000
B(  0-Al,  1-H ) :   0.9259 B(  0-Al,  2-H ) :   0.9259 B(  0-Al,  3-H ) :   0.9260

MP2 TOTAL ENERGY:     -244.080115033 Eh
Dispersion correction           -0.000936007
FINAL SINGLE POINT ENERGY      -244.081051039701

DIPOLE MOMENT
-------------
                                X             Y             Z
Electronic contribution:      0.00001       0.00000       0.00000
Nuclear contribution   :     -0.00001       0.00000       0.00000
                        -----------------------------------------
Total Dipole Moment    :      0.00000       0.00000       0.00000
                        -----------------------------------------
Magnitude (a.u.)       :      0.00000
Magnitude (Debye)      :      0.00000

Rotational constants in cm-1:     4.350150     4.350130     2.175070
Rotational constants in MHz : 130414.210579 130413.615544 65206.956531

                             ****ORCA TERMINATED NORMALLY****
TOTAL RUN TIME: 0 days 0 hours 0 minutes 2 seconds 999 msec
