                         Program Version 4.2.0 -  RELEASE  -
|  1> #
|  2> # 177_si ri-B2PLYP-D3BJ/Def2-TZVPPD
|  3> #
|  4> ! rijk ri-b2plyp d3bj def2-tzvppd def2/jk def2-tzvppd/c grid4 nofinalgrid
|  5>
|  6> *xyz 0 1
|  7> Si         0.00000        0.00000        0.00000
|  8> H         -0.86552        0.86552        0.86552
|  9> H          0.86552       -0.86552        0.86552
| 10> H         -0.86552       -0.86552       -0.86552
| 11> H          0.86552        0.86552       -0.86552
| 12> *
| 13>
| 14> %maxcore 5000
| 15>
| 16> %pal
| 17> nprocs = 24
| 18> end
| 19>
| 20>
| 21>                          ****END OF INPUT****

CARTESIAN COORDINATES (ANGSTROEM)
---------------------------------
  Si     0.000000    0.000000    0.000000
  H     -0.865520    0.865520    0.865520
  H      0.865520   -0.865520    0.865520
  H     -0.865520   -0.865520   -0.865520
  H      0.865520    0.865520   -0.865520

 Total Charge           Charge          ....    0
 Multiplicity           Mult            ....    1
 Number of Electrons    NEL             ....   18
 Basis Dimension        Dim             ....  116

ORBITAL ENERGIES
----------------

  NO   OCC          E(Eh)            E(eV)
   0   2.0000     -67.228204     -1829.3724
   1   2.0000      -5.628312      -153.1541
   2   2.0000      -3.882233      -105.6409
   3   2.0000      -3.882233      -105.6409
   4   2.0000      -3.882233      -105.6409
   5   2.0000      -0.621633       -16.9155
   6   2.0000      -0.407033       -11.0759
   7   2.0000      -0.407033       -11.0759
   8   2.0000      -0.407033       -11.0759
   9   0.0000       0.034375         0.9354
  10   0.0000       0.066128         1.7994
  11   0.0000       0.066128         1.7994
  12   0.0000       0.066128         1.7994
  13   0.0000       0.099500         2.7075

MULLIKEN ATOMIC CHARGES
-----------------------
   0 Si:    0.467123
   1 H :   -0.116781
   2 H :   -0.116780
   3 H :   -0.116781
   4 H :   -0.116780
Sum of atomic charges:   -0.0000000

LOEWDIN ATOMIC CHARGES
----------------------
   0 Si:    0.669272
   1 H :   -0.167318
   2 H :   -0.167318
   3 H :   -0.167318
   4 H :   -0.167318

  Mayer bond orders larger than 0.100000
B(  0-Si,  1-H ) :   0.9594 B(  0-Si,  2-H ) :   0.9594 B(  0-Si,  3-H ) :   0.9594
B(  0-Si,  4-H ) :   0.9594

MP2 TOTAL ENERGY:     -291.759455135 Eh
Dispersion correction           -0.001433062
FINAL SINGLE POINT ENERGY      -291.760888196695

DIPOLE MOMENT
-------------
                                X             Y             Z
Electronic contribution:      0.00000       0.00000      -0.00000
Nuclear contribution   :      0.00000       0.00000       0.00000
                        -----------------------------------------
Total Dipole Moment    :      0.00000       0.00000      -0.00000
                        -----------------------------------------
Magnitude (a.u.)       :      0.00000
Magnitude (Debye)      :      0.00000

Rotational constants in cm-1:     2.790565     2.790565     2.790565
Rotational constants in MHz : 83659.038574 83659.038574 83659.038574

                             ****ORCA TERMINATED NORMALLY****
TOTAL RUN TIME: 0 days 0 hours 0 minutes 3 seconds 605 msec
