                         Program Version 4.2.0 -  RELEASE  -
|  1> #
|  2> # 178_p ri-B2PLYP-D3BJ/Def2-TZVPPD
|  3> #
|  4> ! rijk ri-b2plyp d3bj def2-tzvppd def2/jk def2-tzvppd/c grid4 nofinalgrid
|  5>
|  6> *xyz 0 1
|  7> P          0.00000        0.00000        0.95949
|  8> P          0.00000        0.00000       -0.95949
|  9> *
| 10>
| 11> %maxcore 5000
| 12>
| 13> %pal
| 14> nprocs = 24
| 15> end
| 16>
| 17>
| 18>                          ****END OF INPUT****

CARTESIAN COORDINATES (ANGSTROEM)
---------------------------------
  P      0.000000    0.000000    0.959490
  P      0.000000    0.000000   -0.959490

 Total Charge           Charge          ....    0
 Multiplicity           Mult            ....    1
 Number of Electrons    NEL             ....   30
 Basis Dimension        Dim             ....   96

ORBITAL ENERGIES
----------------

  NO   OCC          E(Eh)            E(eV)
   0   2.0000     -78.295154     -2130.5194
   1   2.0000     -78.295134     -2130.5189
   2   2.0000      -6.963689      -189.4916
   3   2.0000      -6.963186      -189.4779
   4   2.0000      -5.013101      -136.4134
   5   2.0000      -5.013101      -136.4134
   6   2.0000      -5.012917      -136.4084
   7   2.0000      -5.012917      -136.4084
   8   2.0000      -5.011407      -136.3673
   9   2.0000      -5.009438      -136.3137
  10   2.0000      -0.768921       -20.9234
  11   2.0000      -0.529034       -14.3957
  12   2.0000      -0.343517        -9.3476
  13   2.0000      -0.319039        -8.6815
  14   2.0000      -0.319039        -8.6815
  15   0.0000      -0.054187        -1.4745
  16   0.0000      -0.054187        -1.4745
  17   0.0000       0.053425         1.4538
  18   0.0000       0.058228         1.5845
  19   0.0000       0.123290         3.3549

MULLIKEN ATOMIC CHARGES
-----------------------
   0 P :   -0.000003
   1 P :    0.000003
Sum of atomic charges:   -0.0000000

LOEWDIN ATOMIC CHARGES
----------------------
   0 P :   -0.000000
   1 P :    0.000000

  Mayer bond orders larger than 0.100000
B(  0-P ,  1-P ) :   2.8472

MP2 TOTAL ENERGY:     -682.471753189 Eh
Dispersion correction           -0.001815280
FINAL SINGLE POINT ENERGY      -682.473568469404

DIPOLE MOMENT
-------------
                                X             Y             Z
Electronic contribution:     -0.00000      -0.00000      -0.00000
Nuclear contribution   :      0.00000       0.00000       0.00000
                        -----------------------------------------
Total Dipole Moment    :     -0.00000      -0.00000      -0.00000
                        -----------------------------------------
Magnitude (a.u.)       :      0.00000
Magnitude (Debye)      :      0.00000

Rotational constants in cm-1:     0.000000     0.295589     0.295589
Rotational constants in MHz :     0.000000  8861.544214  8861.544214

                             ****ORCA TERMINATED NORMALLY****
TOTAL RUN TIME: 0 days 0 hours 0 minutes 3 seconds 55 msec
