                         Program Version 4.2.0 -  RELEASE  -
|  1> #
|  2> # 179_s ri-B2PLYP-D3BJ/Def2-TZVPPD
|  3> #
|  4> ! rijk ri-b2plyp d3bj def2-tzvppd def2/jk def2-tzvppd/c grid4 nofinalgrid
|  5>
|  6> *xyz 0 3
|  7> S          0.00000        0.00000        0.96937
|  8> S          0.00000        0.00000       -0.96937
|  9> *
| 10>
| 11> %maxcore 5000
| 12>
| 13> %pal
| 14> nprocs = 24
| 15> end
| 16>
| 17>
| 18>                          ****END OF INPUT****

CARTESIAN COORDINATES (ANGSTROEM)
---------------------------------
  S      0.000000    0.000000    0.969370
  S      0.000000    0.000000   -0.969370

 Total Charge           Charge          ....    0
 Multiplicity           Mult            ....    3
 Number of Electrons    NEL             ....   32
 Basis Dimension        Dim             ....  102

ORBITAL ENERGIES
----------------
                 SPIN UP ORBITALS
  NO   OCC          E(Eh)            E(eV)
   0   1.0000     -90.216602     -2454.9186
   1   1.0000     -90.216594     -2454.9183
   2   1.0000      -8.417642      -229.0557
   3   1.0000      -8.417442      -229.0502
   4   1.0000      -6.265740      -170.4994
   5   1.0000      -6.265740      -170.4994
   6   1.0000      -6.265702      -170.4984
   7   1.0000      -6.265702      -170.4984
   8   1.0000      -6.260804      -170.3651
   9   1.0000      -6.260124      -170.3466
  10   1.0000      -0.944289       -25.6954
  11   1.0000      -0.738428       -20.0936
  12   1.0000      -0.455120       -12.3844
  13   1.0000      -0.440661       -11.9910
  14   1.0000      -0.440661       -11.9910
  15   1.0000      -0.308814        -8.4033
  16   1.0000      -0.308814        -8.4033
  17   0.0000       0.009692         0.2637
  18   0.0000       0.053004         1.4423
  19   0.0000       0.054551         1.4844
  20   0.0000       0.054551         1.4844
  21   0.0000       0.068919         1.8754

                 SPIN DOWN ORBITALS
  NO   OCC          E(Eh)            E(eV)
   0   1.0000     -90.207536     -2454.6719
   1   1.0000     -90.207530     -2454.6717
   2   1.0000      -8.409378      -228.8308
   3   1.0000      -8.409114      -228.8236
   4   1.0000      -6.256588      -170.2504
   5   1.0000      -6.255885      -170.2313
   6   1.0000      -6.246658      -169.9802
   7   1.0000      -6.246658      -169.9802
   8   1.0000      -6.246601      -169.9787
   9   1.0000      -6.246601      -169.9787
  10   1.0000      -0.900972       -24.5167
  11   1.0000      -0.649449       -17.6724
  12   1.0000      -0.426986       -11.6189
  13   1.0000      -0.360396        -9.8069
  14   1.0000      -0.360396        -9.8069
  15   0.0000      -0.087754        -2.3879
  16   0.0000      -0.087754        -2.3879
  17   0.0000       0.018429         0.5015
  18   0.0000       0.054885         1.4935
  19   0.0000       0.056377         1.5341

MULLIKEN ATOMIC CHARGES AND SPIN POPULATIONS
--------------------------------------------
   0 S :    0.000000    1.000000
   1 S :   -0.000000    1.000000
Sum of atomic charges         :    0.0000000

LOEWDIN ATOMIC CHARGES AND SPIN POPULATIONS
-------------------------------------------
   0 S :    0.000000    1.000000
   1 S :   -0.000000    1.000000

  Mayer bond orders larger than 0.100000
B(  0-S ,  1-S ) :   1.9719

MP2 TOTAL ENERGY:     -796.145052307 Eh
Dispersion correction           -0.001397048
FINAL SINGLE POINT ENERGY      -796.146449354471

DIPOLE MOMENT
-------------
                                X             Y             Z
Electronic contribution:      0.00000       0.00000      -0.00000
Nuclear contribution   :      0.00000       0.00000       0.00000
                        -----------------------------------------
Total Dipole Moment    :      0.00000       0.00000      -0.00000
                        -----------------------------------------
Magnitude (a.u.)       :      0.00000
Magnitude (Debye)      :      0.00000

Rotational constants in cm-1:     0.000000     0.279785     0.279785
Rotational constants in MHz :     0.000000  8387.739618  8387.739618

                             ****ORCA TERMINATED NORMALLY****
TOTAL RUN TIME: 0 days 0 hours 0 minutes 4 seconds 39 msec
