                         Program Version 4.2.0 -  RELEASE  -
|  1> #
|  2> # 180_cl ri-B2PLYP-D3BJ/Def2-TZVPPD
|  3> #
|  4> ! rijk ri-b2plyp d3bj def2-tzvppd def2/jk def2-tzvppd/c grid4 nofinalgrid
|  5>
|  6> *xyz 0 1
|  7> Cl         0.00000        0.00000        1.02399
|  8> Cl         0.00000        0.00000       -1.02399
|  9> *
| 10>
| 11> %maxcore 5000
| 12>
| 13> %pal
| 14> nprocs = 24
| 15> end
| 16>
| 17>
| 18>                          ****END OF INPUT****

CARTESIAN COORDINATES (ANGSTROEM)
---------------------------------
  Cl     0.000000    0.000000    1.023990
  Cl     0.000000    0.000000   -1.023990

 Total Charge           Charge          ....    0
 Multiplicity           Mult            ....    1
 Number of Electrons    NEL             ....   34
 Basis Dimension        Dim             ....  102

ORBITAL ENERGIES
----------------

  NO   OCC          E(Eh)            E(eV)
   0   2.0000    -102.971903     -2802.0079
   1   2.0000    -102.971898     -2802.0078
   2   2.0000      -9.973269      -271.3864
   3   2.0000      -9.973191      -271.3843
   4   2.0000      -7.614970      -207.2139
   5   2.0000      -7.614829      -207.2100
   6   2.0000      -7.605804      -206.9644
   7   2.0000      -7.605804      -206.9644
   8   2.0000      -7.605804      -206.9644
   9   2.0000      -7.605804      -206.9644
  10   2.0000      -1.042344       -28.3636
  11   2.0000      -0.881001       -23.9733
  12   2.0000      -0.520600       -14.1663
  13   2.0000      -0.472924       -12.8689
  14   2.0000      -0.472924       -12.8689
  15   2.0000      -0.371903       -10.1200
  16   2.0000      -0.371903       -10.1200
  17   0.0000      -0.079333        -2.1587
  18   0.0000       0.051319         1.3965
  19   0.0000       0.066611         1.8126
  20   0.0000       0.067176         1.8280
  21   0.0000       0.067176         1.8280

MULLIKEN ATOMIC CHARGES
-----------------------
   0 Cl:    0.000000
   1 Cl:   -0.000000
Sum of atomic charges:   -0.0000000

LOEWDIN ATOMIC CHARGES
----------------------
   0 Cl:    0.000000
   1 Cl:   -0.000000

  Mayer bond orders larger than 0.100000
B(  0-Cl,  1-Cl) :   1.0153

MP2 TOTAL ENERGY:     -920.133347211 Eh
Dispersion correction           -0.001033241
FINAL SINGLE POINT ENERGY      -920.134380451216

DIPOLE MOMENT
-------------
                                X             Y             Z
Electronic contribution:      0.00000      -0.00000      -0.00000
Nuclear contribution   :      0.00000       0.00000       0.00000
                        -----------------------------------------
Total Dipole Moment    :      0.00000      -0.00000      -0.00000
                        -----------------------------------------
Magnitude (a.u.)       :      0.00000
Magnitude (Debye)      :      0.00000

Rotational constants in cm-1:     0.000000     0.226737     0.226737
Rotational constants in MHz :     0.000000  6797.405627  6797.405627

                             ****ORCA TERMINATED NORMALLY****
TOTAL RUN TIME: 0 days 0 hours 0 minutes 2 seconds 991 msec
