                         Program Version 4.2.0 -  RELEASE  -
|  1> #
|  2> # 048 TPSSh-D3BJ/Def2-TZVPPD
|  3> #
|  4> ! tpssh d3bj def2-tzvppd def2/jk grid4 nofinalgrid
|  5>
|  6> *xyz 0 1
|  7> O          0.75742       -0.00510        0.75514
|  8> H         -1.01794        1.02757        1.02184
|  9> H         -0.96093       -0.60735        1.74144
| 10> C         -0.64191        0.00049        0.87802
| 11> H          0.38038        0.00572       -2.17342
| 12> H          0.12624       -0.00672       -2.88156
| 13> Al         2.47079       -0.00043        0.68709
| 14> H         -1.11404       -0.41418       -0.02857
| 15> *
| 16>
| 17> %maxcore 5000
| 18>
| 19> %pal
| 20> nprocs = 24
| 21> end
| 22>
| 23>
| 24>                          ****END OF INPUT****

CARTESIAN COORDINATES (ANGSTROEM)
---------------------------------
  O      0.757420   -0.005100    0.755140
  H     -1.017940    1.027570    1.021840
  H     -0.960930   -0.607350    1.741440
  C     -0.641910    0.000490    0.878020
  H      0.380380    0.005720   -2.173420
  H      0.126240   -0.006720   -2.881560
  Al     2.470790   -0.000430    0.687090
  H     -1.114040   -0.414180   -0.028570

 Total Charge           Charge          ....    0
 Multiplicity           Mult            ....    1
 Number of Electrons    NEL             ....   32
 Basis Dimension        Dim             ....  210

ORBITAL ENERGIES
----------------

  NO   OCC          E(Eh)            E(eV)
   0   2.0000     -55.899003     -1521.0892
   1   2.0000     -19.040491      -518.1181
   2   2.0000     -10.160739      -276.4878
   3   2.0000      -4.069120      -110.7264
   4   2.0000      -2.613299       -71.1115
   5   2.0000      -2.613288       -71.1112
   6   2.0000      -2.609036       -70.9955
   7   2.0000      -0.961625       -26.1672
   8   2.0000      -0.656322       -17.8594
   9   2.0000      -0.460717       -12.5367
  10   2.0000      -0.427480       -11.6323
  11   2.0000      -0.423451       -11.5227
  12   2.0000      -0.408795       -11.1239
  13   2.0000      -0.272286        -7.4093
  14   2.0000      -0.271859        -7.3977
  15   2.0000      -0.227185        -6.1820
  16   0.0000      -0.046378        -1.2620
  17   0.0000      -0.046228        -1.2579
  18   0.0000       0.006876         0.1871
  19   0.0000       0.018817         0.5120
  20   0.0000       0.029761         0.8098

MULLIKEN ATOMIC CHARGES
-----------------------
   0 O :    0.260560
   1 H :    0.047706
   2 H :    0.046288
   3 C :    0.123793
   4 H :   -0.081148
   5 H :    0.076333
   6 Al:   -0.524681
   7 H :    0.051150
Sum of atomic charges:   -0.0000000

LOEWDIN ATOMIC CHARGES
----------------------
   0 O :   -0.523669
   1 H :   -0.003032
   2 H :   -0.004285
   3 C :   -0.003860
   4 H :    0.006681
   5 H :    0.035762
   6 Al:    0.506970
   7 H :   -0.014568

  Mayer bond orders larger than 0.100000
B(  0-O ,  3-C ) :   0.6867 B(  0-O ,  6-Al) :  -0.6987 B(  1-H ,  3-C ) :   1.0023
B(  2-H ,  3-C ) :   1.0094 B(  3-C ,  7-H ) :   1.0034 B(  4-H ,  5-H ) :   0.9869

Dispersion correction           -0.005064164
FINAL SINGLE POINT ENERGY      -358.844052733158

DIPOLE MOMENT
-------------
                                X             Y             Z
Electronic contribution:      8.63396      -0.00596       5.31938
Nuclear contribution   :     -8.98536       0.01025      -5.24566
                        -----------------------------------------
Total Dipole Moment    :     -0.35140       0.00429       0.07372
                        -----------------------------------------
Magnitude (a.u.)       :      0.35907
Magnitude (Debye)      :      0.91269

Rotational constants in cm-1:     0.678137     0.159402     0.132325
Rotational constants in MHz : 20330.024381  4778.738837  3967.007595

                             ****ORCA TERMINATED NORMALLY****
TOTAL RUN TIME: 0 days 0 hours 0 minutes 6 seconds 497 msec
