                         Program Version 4.2.0 -  RELEASE  -
|  1> #
|  2> # 050 TPSSh-D3BJ/Def2-TZVPPD
|  3> #
|  4> ! tpssh d3bj def2-tzvppd def2/jk grid4 nofinalgrid
|  5>
|  6> *xyz 0 1
|  7> H          0.20940       -0.52586       -2.49943
|  8> Cl        -0.00687       -1.57667        0.66924
|  9> H         -0.20240       -1.10325       -2.75186
| 10> H         -1.52841        1.31136        0.17964
| 11> H          1.18008        1.27520       -0.42375
| 12> H          0.01798       -1.62546        1.96923
| 13> Al        -0.00655        1.11839        0.64244
| 14> H          0.33679        1.12629        2.21448
| 15> *
| 16>
| 17> %maxcore 5000
| 18>
| 19> %pal
| 20> nprocs = 24
| 21> end
| 22>
| 23>
| 24>                          ****END OF INPUT****

CARTESIAN COORDINATES (ANGSTROEM)
---------------------------------
  H      0.209400   -0.525860   -2.499430
  Cl    -0.006870   -1.576670    0.669240
  H     -0.202400   -1.103250   -2.751860
  H     -1.528410    1.311360    0.179640
  H      1.180080    1.275200   -0.423750
  H      0.017980   -1.625460    1.969230
  Al    -0.006550    1.118390    0.642440
  H      0.336790    1.126290    2.214480

 Total Charge           Charge          ....    0
 Multiplicity           Mult            ....    1
 Number of Electrons    NEL             ....   36
 Basis Dimension        Dim             ....  201

ORBITAL ENERGIES
----------------

  NO   OCC          E(Eh)            E(eV)
   0   2.0000    -101.438645     -2760.2858
   1   2.0000     -55.885516     -1520.7222
   2   2.0000      -9.439901      -256.8728
   3   2.0000      -7.187227      -195.5744
   4   2.0000      -7.179466      -195.3632
   5   2.0000      -7.177848      -195.3192
   6   2.0000      -4.060595      -110.4944
   7   2.0000      -2.609357       -71.0042
   8   2.0000      -2.600412       -70.7608
   9   2.0000      -2.600179       -70.7545
  10   2.0000      -0.872631       -23.7455
  11   2.0000      -0.503569       -13.7028
  12   2.0000      -0.420301       -11.4370
  13   2.0000      -0.414260       -11.2726
  14   2.0000      -0.366485        -9.9726
  15   2.0000      -0.352837        -9.6012
  16   2.0000      -0.280294        -7.6272
  17   2.0000      -0.276860        -7.5338
  18   0.0000      -0.050674        -1.3789
  19   0.0000      -0.029297        -0.7972
  20   0.0000       0.014847         0.4040
  21   0.0000       0.020786         0.5656
  22   0.0000       0.030356         0.8260

MULLIKEN ATOMIC CHARGES
-----------------------
   0 H :   -0.005871
   1 Cl:   -0.217793
   2 H :    0.007199
   3 H :   -0.223120
   4 H :   -0.228835
   5 H :    0.299313
   6 Al:    0.613959
   7 H :   -0.244851
Sum of atomic charges:   -0.0000000

LOEWDIN ATOMIC CHARGES
----------------------
   0 H :    0.006849
   1 Cl:    0.524520
   2 H :    0.027541
   3 H :   -0.193794
   4 H :   -0.195394
   5 H :   -0.331086
   6 Al:    0.353140
   7 H :   -0.191775

  Mayer bond orders larger than 0.100000
B(  0-H ,  2-H ) :   0.9906 B(  1-Cl,  5-H ) :   0.8985 B(  1-Cl,  6-Al) :   0.2075
B(  3-H ,  6-Al) :   0.9302 B(  4-H ,  6-Al) :   0.9251 B(  6-Al,  7-H ) :   0.8954

Dispersion correction           -0.004836277
FINAL SINGLE POINT ENERGY      -706.254610215215

DIPOLE MOMENT
-------------
                                X             Y             Z
Electronic contribution:     -0.04035      -3.64131       5.09486
Nuclear contribution   :      0.04784       2.78212      -4.67262
                        -----------------------------------------
Total Dipole Moment    :      0.00749      -0.85918       0.42224
                        -----------------------------------------
Magnitude (a.u.)       :      0.95736
Magnitude (Debye)      :      2.43342

Rotational constants in cm-1:     0.545363     0.134491     0.113645
Rotational constants in MHz : 16349.582447  4031.950699  3406.980673

                             ****ORCA TERMINATED NORMALLY****
TOTAL RUN TIME: 0 days 0 hours 0 minutes 4 seconds 617 msec
