                         Program Version 4.2.0 -  RELEASE  -
|  1> #
|  2> # 070 TPSSh-D3BJ/Def2-TZVPPD
|  3> #
|  4> ! tpssh d3bj def2-tzvppd def2/jk grid4 nofinalgrid
|  5>
|  6> *xyz 0 1
|  7> H          0.08530       -0.02655        1.60712
|  8> H          0.90656       -0.78582       -1.39861
|  9> Be        -0.05035        0.92778       -0.02639
| 10> H          0.07901        0.71807        1.80526
| 11> F         -0.04624       -1.68577        0.17900
| 12> C         -0.00461       -0.62157       -0.79461
| 13> H         -0.11623        2.26790        0.10895
| 14> H         -0.85344       -0.79405       -1.48072
| 15> *
| 16>
| 17> %maxcore 5000
| 18>
| 19> %pal
| 20> nprocs = 24
| 21> end
| 22>
| 23>
| 24>                          ****END OF INPUT****

CARTESIAN COORDINATES (ANGSTROEM)
---------------------------------
  H      0.085300   -0.026550    1.607120
  H      0.906560   -0.785820   -1.398610
  Be    -0.050350    0.927780   -0.026390
  H      0.079010    0.718070    1.805260
  F     -0.046240   -1.685770    0.179000
  C     -0.004610   -0.621570   -0.794610
  H     -0.116230    2.267900    0.108950
  H     -0.853440   -0.794050   -1.480720

 Total Charge           Charge          ....    0
 Multiplicity           Mult            ....    1
 Number of Electrons    NEL             ....   24
 Basis Dimension        Dim             ....  184

ORBITAL ENERGIES
----------------

  NO   OCC          E(Eh)            E(eV)
   0   2.0000     -24.571481      -668.6240
   1   2.0000     -10.153189      -276.2823
   2   2.0000      -3.976942      -108.2181
   3   2.0000      -1.138871       -30.9903
   4   2.0000      -0.648841       -17.6559
   5   2.0000      -0.505891       -13.7660
   6   2.0000      -0.444547       -12.0967
   7   2.0000      -0.437682       -11.9099
   8   2.0000      -0.398267       -10.8374
   9   2.0000      -0.318217        -8.6591
  10   2.0000      -0.310017        -8.4360
  11   2.0000      -0.267820        -7.2877
  12   0.0000      -0.038226        -1.0402
  13   0.0000      -0.007209        -0.1962
  14   0.0000       0.006416         0.1746
  15   0.0000       0.018438         0.5017
  16   0.0000       0.030899         0.8408

MULLIKEN ATOMIC CHARGES
-----------------------
   0 H :    0.092617
   1 H :   -0.062907
   2 Be:    0.099120
   3 H :   -0.024703
   4 F :   -0.320152
   5 C :    0.367337
   6 H :   -0.093646
   7 H :   -0.057667
Sum of atomic charges:    0.0000000

LOEWDIN ATOMIC CHARGES
----------------------
   0 H :    0.077744
   1 H :   -0.052746
   2 Be:    0.366007
   3 H :    0.072182
   4 F :   -0.178669
   5 C :   -0.121376
   6 H :   -0.109707
   7 H :   -0.053436

  Mayer bond orders larger than 0.100000
B(  0-H ,  2-Be) :   0.1576 B(  0-H ,  3-H ) :   0.8782 B(  1-H ,  5-C ) :   1.0185
B(  2-Be,  3-H ) :   0.1735 B(  2-Be,  5-C ) :   1.0498 B(  2-Be,  6-H ) :   0.8751
B(  4-F ,  5-C ) :   0.7386 B(  5-C ,  7-H ) :   1.0199

Dispersion correction           -0.004024922
FINAL SINGLE POINT ENERGY      -155.718517489091

DIPOLE MOMENT
-------------
                                X             Y             Z
Electronic contribution:     -0.19874      -3.58169      -0.72142
Nuclear contribution   :      0.26588       3.83479       0.81982
                        -----------------------------------------
Total Dipole Moment    :      0.06714       0.25311       0.09840
                        -----------------------------------------
Magnitude (a.u.)       :      0.27974
Magnitude (Debye)      :      0.71103

Rotational constants in cm-1:     0.879452     0.304630     0.236523
Rotational constants in MHz : 26365.310047  9132.583609  7090.795310

                             ****ORCA TERMINATED NORMALLY****
TOTAL RUN TIME: 0 days 0 hours 0 minutes 5 seconds 43 msec
