                         Program Version 4.2.0 -  RELEASE  -
|  1> #
|  2> # 076 TPSSh-D3BJ/Def2-TZVPPD
|  3> #
|  4> ! tpssh d3bj def2-tzvppd def2/jk grid4 nofinalgrid
|  5>
|  6> *xyz 0 1
|  7> H         -0.10732        2.90062       -0.02721
|  8> H          0.35760       -1.90152        0.97790
|  9> Li        -0.27775        0.78724       -0.00029
| 10> H          0.84572       -0.46906       -0.34423
| 11> H         -1.10236       -0.68915        0.32212
| 12> B         -0.04346       -1.30148        0.00006
| 13> H          0.61490        2.68175        0.02928
| 14> H         -0.28734       -2.00840       -0.95762
| 15> *
| 16>
| 17> %maxcore 5000
| 18>
| 19> %pal
| 20> nprocs = 24
| 21> end
| 22>
| 23>
| 24>                          ****END OF INPUT****

CARTESIAN COORDINATES (ANGSTROEM)
---------------------------------
  H     -0.107320    2.900620   -0.027210
  H      0.357600   -1.901520    0.977900
  Li    -0.277750    0.787240   -0.000290
  H      0.845720   -0.469060   -0.344230
  H     -1.102360   -0.689150    0.322120
  B     -0.043460   -1.301480    0.000060
  H      0.614900    2.681750    0.029280
  H     -0.287340   -2.008400   -0.957620

 Total Charge           Charge          ....    0
 Multiplicity           Mult            ....    1
 Number of Electrons    NEL             ....   14
 Basis Dimension        Dim             ....  161

ORBITAL ENERGIES
----------------

  NO   OCC          E(Eh)            E(eV)
   0   2.0000      -6.600334      -179.6042
   1   2.0000      -1.982691       -53.9518
   2   2.0000      -0.512401       -13.9431
   3   2.0000      -0.467134       -12.7114
   4   2.0000      -0.285573        -7.7708
   5   2.0000      -0.269050        -7.3212
   6   2.0000      -0.255832        -6.9616
   7   0.0000      -0.042380        -1.1532
   8   0.0000      -0.018829        -0.5124
   9   0.0000      -0.014501        -0.3946
  10   0.0000       0.002710         0.0737
  11   0.0000       0.039404         1.0722

MULLIKEN ATOMIC CHARGES
-----------------------
   0 H :    0.038978
   1 H :   -0.005886
   2 Li:    0.679139
   3 H :   -0.182184
   4 H :   -0.143572
   5 B :   -0.409073
   6 H :    0.029270
   7 H :   -0.006672
Sum of atomic charges:    0.0000000

LOEWDIN ATOMIC CHARGES
----------------------
   0 H :    0.096869
   1 H :   -0.072604
   2 Li:    0.335865
   3 H :   -0.085788
   4 H :   -0.078953
   5 B :   -0.216828
   6 H :    0.094188
   7 H :   -0.072750

  Mayer bond orders larger than 0.100000
B(  0-H ,  6-H ) :   0.9304 B(  1-H ,  5-B ) :   0.9717 B(  2-Li,  3-H ) :   0.1203
B(  2-Li,  4-H ) :   0.1270 B(  2-Li,  5-B ) :   0.1488 B(  3-H ,  5-B ) :   0.8719
B(  4-H ,  5-B ) :   0.8754 B(  5-B ,  7-H ) :   0.9708

Dispersion correction           -0.003568328
FINAL SINGLE POINT ENERGY       -35.993893920846

DIPOLE MOMENT
-------------
                                X             Y             Z
Electronic contribution:     -1.17162       0.76458      -0.00112
Nuclear contribution   :      0.92718       2.12684       0.00062
                        -----------------------------------------
Total Dipole Moment    :     -0.24444       2.89142      -0.00050
                        -----------------------------------------
Magnitude (a.u.)       :      2.90173
Magnitude (Debye)      :      7.37562

Rotational constants in cm-1:     3.344864     0.365518     0.359194
Rotational constants in MHz : 100276.510227 10957.945080 10768.366475

                             ****ORCA TERMINATED NORMALLY****
TOTAL RUN TIME: 0 days 0 hours 0 minutes 4 seconds 565 msec
