                         Program Version 4.2.0 -  RELEASE  -
|  1> #
|  2> # 088 TPSSh-D3BJ/Def2-TZVPPD
|  3> #
|  4> ! tpssh d3bj def2-tzvppd def2/jk grid4 nofinalgrid
|  5>
|  6> *xyz 0 1
|  7> C          0.81376        0.10372        0.34640
|  8> H          0.87654        0.17194        1.44377
|  9> H          1.67271        0.57624       -0.15360
| 10> N          0.56076       -1.37061        0.00951
| 11> C         -0.53618        0.54868       -0.29052
| 12> S         -2.13839       -0.48145        0.15104
| 13> H         -0.69523        1.33853       -1.02043
| 14> C         -0.55397       -0.88705       -0.48618
| 15> *
| 16>
| 17> %maxcore 5000
| 18>
| 19> %pal
| 20> nprocs = 24
| 21> end
| 22>
| 23>
| 24>                          ****END OF INPUT****

CARTESIAN COORDINATES (ANGSTROEM)
---------------------------------
  C      0.813760    0.103720    0.346400
  H      0.876540    0.171940    1.443770
  H      1.672710    0.576240   -0.153600
  N      0.560760   -1.370610    0.009510
  C     -0.536180    0.548680   -0.290520
  S     -2.138390   -0.481450    0.151040
  H     -0.695230    1.338530   -1.020430
  C     -0.553970   -0.887050   -0.486180

 Total Charge           Charge          ....    0
 Multiplicity           Mult            ....    1
 Number of Electrons    NEL             ....   44
 Basis Dimension        Dim             ....  250

ORBITAL ENERGIES
----------------

  NO   OCC          E(Eh)            E(eV)
   0   2.0000     -88.758146     -2415.2319
   1   2.0000     -14.262421      -388.1002
   2   2.0000     -10.212035      -277.8836
   3   2.0000     -10.192191      -277.3436
   4   2.0000     -10.178628      -276.9745
   5   2.0000      -7.901956      -215.0232
   6   2.0000      -5.852503      -159.2547
   7   2.0000      -5.850769      -159.2075
   8   2.0000      -5.841836      -158.9644
   9   2.0000      -0.971726       -26.4420
  10   2.0000      -0.798254       -21.7216
  11   2.0000      -0.697835       -18.9890
  12   2.0000      -0.607418       -16.5287
  13   2.0000      -0.515902       -14.0384
  14   2.0000      -0.472417       -12.8551
  15   2.0000      -0.451872       -12.2961
  16   2.0000      -0.435658       -11.8549
  17   2.0000      -0.359555        -9.7840
  18   2.0000      -0.338916        -9.2224
  19   2.0000      -0.301480        -8.2037
  20   2.0000      -0.247637        -6.7385
  21   2.0000      -0.228635        -6.2215
  22   0.0000      -0.112301        -3.0559
  23   0.0000      -0.055970        -1.5230
  24   0.0000       0.001464         0.0398
  25   0.0000       0.012568         0.3420
  26   0.0000       0.022716         0.6181

MULLIKEN ATOMIC CHARGES
-----------------------
   0 C :    0.502538
   1 H :   -0.056818
   2 H :   -0.036114
   3 N :   -0.543961
   4 C :    0.045274
   5 S :   -0.328982
   6 H :    0.064590
   7 C :    0.353473
Sum of atomic charges:   -0.0000000

LOEWDIN ATOMIC CHARGES
----------------------
   0 C :   -0.027931
   1 H :    0.022873
   2 H :    0.017788
   3 N :    0.079559
   4 C :   -0.260405
   5 S :    0.848933
   6 H :   -0.020521
   7 C :   -0.660296

  Mayer bond orders larger than 0.100000
B(  0-C ,  1-H ) :   0.9164 B(  0-C ,  2-H ) :   0.9942 B(  0-C ,  3-N ) :   0.6670
B(  0-C ,  4-C ) :   0.8858 B(  0-C ,  7-C ) :   0.2535 B(  3-N ,  4-C ) :   0.1818
B(  3-N ,  5-S ) :   0.1213 B(  3-N ,  7-C ) :   1.3238 B(  4-C ,  5-S ) :   0.8222
B(  4-C ,  6-H ) :   1.0133 B(  4-C ,  7-C ) :   0.9108 B(  5-S ,  7-C ) :   0.9271

Dispersion correction           -0.007809811
FINAL SINGLE POINT ENERGY      -569.009800269877

DIPOLE MOMENT
-------------
                                X             Y             Z
Electronic contribution:     -3.79253      -2.09263      -0.36565
Nuclear contribution   :      3.84230       3.12311       0.24615
                        -----------------------------------------
Total Dipole Moment    :      0.04977       1.03048      -0.11950
                        -----------------------------------------
Magnitude (a.u.)       :      1.03858
Magnitude (Debye)      :      2.63985

Rotational constants in cm-1:     0.386346     0.125803     0.105869
Rotational constants in MHz : 11582.371237  3771.469962  3173.859054

                             ****ORCA TERMINATED NORMALLY****
TOTAL RUN TIME: 0 days 0 hours 0 minutes 12 seconds 862 msec
