                         Program Version 4.2.0 -  RELEASE  -
|  1> #
|  2> # 096 TPSSh-D3BJ/Def2-TZVPPD
|  3> #
|  4> ! tpssh d3bj def2-tzvppd def2/jk grid4 nofinalgrid
|  5>
|  6> *xyz 0 1
|  7> H          0.74842        1.26851        0.59882
|  8> C         -0.16355        0.74665        0.30940
|  9> H          0.74849       -1.26857        0.59856
| 10> C         -0.16356       -0.74663        0.30935
| 11> H          1.21141        0.00004       -1.60315
| 12> H         -1.08115        1.25625        0.60788
| 13> P         -0.21890        0.00004       -1.42860
| 14> H         -1.08115       -1.25629        0.60773
| 15> *
| 16>
| 17> %maxcore 5000
| 18>
| 19> %pal
| 20> nprocs = 24
| 21> end
| 22>
| 23>
| 24>                          ****END OF INPUT****

CARTESIAN COORDINATES (ANGSTROEM)
---------------------------------
  H      0.748420    1.268510    0.598820
  C     -0.163550    0.746650    0.309400
  H      0.748490   -1.268570    0.598560
  C     -0.163560   -0.746630    0.309350
  H      1.211410    0.000040   -1.603150
  H     -1.081150    1.256250    0.607880
  P     -0.218900    0.000040   -1.428600
  H     -1.081150   -1.256290    0.607730

 Total Charge           Charge          ....    0
 Multiplicity           Mult            ....    1
 Number of Electrons    NEL             ....   32
 Basis Dimension        Dim             ....  207

ORBITAL ENERGIES
----------------

  NO   OCC          E(Eh)            E(eV)
   0   2.0000     -76.916007     -2092.9910
   1   2.0000     -10.132913      -275.7306
   2   2.0000     -10.132693      -275.7246
   3   2.0000      -6.471452      -176.0972
   4   2.0000      -4.621852      -125.7670
   5   2.0000      -4.618552      -125.6772
   6   2.0000      -4.617397      -125.6458
   7   2.0000      -0.789288       -21.4776
   8   2.0000      -0.588506       -16.0141
   9   2.0000      -0.550476       -14.9792
  10   2.0000      -0.465291       -12.6612
  11   2.0000      -0.417956       -11.3732
  12   2.0000      -0.360710        -9.8154
  13   2.0000      -0.319521        -8.6946
  14   2.0000      -0.256543        -6.9809
  15   2.0000      -0.255676        -6.9573
  16   0.0000      -0.011019        -0.2998
  17   0.0000      -0.006568        -0.1787
  18   0.0000       0.023084         0.6281
  19   0.0000       0.035041         0.9535
  20   0.0000       0.045922         1.2496

MULLIKEN ATOMIC CHARGES
-----------------------
   0 H :    0.056564
   1 C :   -0.007190
   2 H :    0.056553
   3 C :   -0.007147
   4 H :    0.011192
   5 H :    0.038248
   6 P :   -0.186469
   7 H :    0.038250
Sum of atomic charges:    0.0000000

LOEWDIN ATOMIC CHARGES
----------------------
   0 H :   -0.042042
   1 C :   -0.256832
   2 H :   -0.042009
   3 C :   -0.256860
   4 H :   -0.178731
   5 H :   -0.047668
   6 P :    0.871821
   7 H :   -0.047680

  Mayer bond orders larger than 0.100000
B(  0-H ,  1-C ) :   1.0005 B(  1-C ,  3-C ) :   0.8621 B(  1-C ,  5-H ) :   1.0287
B(  1-C ,  6-P ) :   0.8687 B(  2-H ,  3-C ) :   1.0005 B(  3-C ,  6-P ) :   0.8687
B(  3-C ,  7-H ) :   1.0287 B(  4-H ,  6-P ) :   0.9732

Dispersion correction           -0.006088033
FINAL SINGLE POINT ENERGY      -420.618663647321

DIPOLE MOMENT
-------------
                                X             Y             Z
Electronic contribution:     -1.17685       0.00012      -3.84999
Nuclear contribution   :      1.35041      -0.00018       4.31337
                        -----------------------------------------
Total Dipole Moment    :      0.17355      -0.00006       0.46338
                        -----------------------------------------
Magnitude (a.u.)       :      0.49482
Magnitude (Debye)      :      1.25773

Rotational constants in cm-1:     0.669213     0.315945     0.248635
Rotational constants in MHz : 20062.492743  9471.799383  7453.892881

                             ****ORCA TERMINATED NORMALLY****
TOTAL RUN TIME: 0 days 0 hours 0 minutes 6 seconds 914 msec
