                         Program Version 4.2.0 -  RELEASE  -
|  1> #
|  2> # 104 TPSSh-D3BJ/Def2-TZVPPD
|  3> #
|  4> ! tpssh d3bj def2-tzvppd def2/jk grid4 nofinalgrid
|  5>
|  6> *xyz 0 2
|  7> C          0.18239        0.81792       -0.17289
|  8> H         -2.32613        0.04031        1.01174
|  9> H          2.24798        0.73105       -0.01871
| 10> C          1.34005        0.10819       -0.12066
| 11> H          0.11379        1.91914       -0.21133
| 12> Si        -1.43329       -0.14152       -0.20061
| 13> H         -1.02937       -1.64029       -0.13873
| 14> Li         0.90457       -1.83481       -0.14881
| 15> *
| 16>
| 17> %maxcore 5000
| 18>
| 19> %pal
| 20> nprocs = 24
| 21> end
| 22>
| 23>
| 24>                          ****END OF INPUT****

CARTESIAN COORDINATES (ANGSTROEM)
---------------------------------
  C      0.182390    0.817920   -0.172890
  H     -2.326130    0.040310    1.011740
  H      2.247980    0.731050   -0.018710
  C      1.340050    0.108190   -0.120660
  H      0.113790    1.919140   -0.211330
  Si    -1.433290   -0.141520   -0.200610
  H     -1.029370   -1.640290   -0.138730
  Li     0.904570   -1.834810   -0.148810

 Total Charge           Charge          ....    0
 Multiplicity           Mult            ....    2
 Number of Electrons    NEL             ....   33
 Basis Dimension        Dim             ....  212

ORBITAL ENERGIES
----------------
                 SPIN UP ORBITALS
  NO   OCC          E(Eh)            E(eV)
   0   1.0000     -65.976146     -1795.3022
   1   1.0000     -10.088187      -274.5135
   2   1.0000     -10.065569      -273.8981
   3   1.0000      -5.206345      -141.6719
   4   1.0000      -3.556459       -96.7762
   5   1.0000      -3.553532       -96.6965
   6   1.0000      -3.550713       -96.6198
   7   1.0000      -1.954294       -53.1790
   8   1.0000      -0.695094       -18.9145
   9   1.0000      -0.521549       -14.1921
  10   1.0000      -0.462932       -12.5970
  11   1.0000      -0.391131       -10.6432
  12   1.0000      -0.333592        -9.0775
  13   1.0000      -0.299925        -8.1614
  14   1.0000      -0.251727        -6.8498
  15   1.0000      -0.200435        -5.4541
  16   1.0000      -0.174731        -4.7547
  17   0.0000      -0.041778        -1.1368
  18   0.0000      -0.016694        -0.4543
  19   0.0000       0.003973         0.1081
  20   0.0000       0.010399         0.2830
  21   0.0000       0.011577         0.3150

                 SPIN DOWN ORBITALS
  NO   OCC          E(Eh)            E(eV)
   0   1.0000     -65.973251     -1795.2234
   1   1.0000     -10.087507      -274.4950
   2   1.0000     -10.062880      -273.8249
   3   1.0000      -5.203265      -141.5880
   4   1.0000      -3.551828       -96.6501
   5   1.0000      -3.549055       -96.5747
   6   1.0000      -3.547696       -96.5377
   7   1.0000      -1.954312       -53.1795
   8   1.0000      -0.690257       -18.7828
   9   1.0000      -0.510490       -13.8911
  10   1.0000      -0.455044       -12.3824
  11   1.0000      -0.385820       -10.4987
  12   1.0000      -0.327676        -8.9165
  13   1.0000      -0.293915        -7.9978
  14   1.0000      -0.237058        -6.4507
  15   1.0000      -0.188224        -5.1218
  16   0.0000      -0.094766        -2.5787
  17   0.0000      -0.040451        -1.1007
  18   0.0000      -0.013425        -0.3653
  19   0.0000       0.007773         0.2115
  20   0.0000       0.016810         0.4574

MULLIKEN ATOMIC CHARGES AND SPIN POPULATIONS
--------------------------------------------
   0 C :    0.053481   -0.013801
   1 H :   -0.079253    0.044028
   2 H :   -0.022339   -0.003572
   3 C :   -0.795175    0.194025
   4 H :    0.129697    0.006071
   5 Si:    0.208166    0.755611
   6 H :   -0.277883    0.018787
   7 Li:    0.783305   -0.001149
Sum of atomic charges         :    0.0000000

LOEWDIN ATOMIC CHARGES AND SPIN POPULATIONS
-------------------------------------------
   0 C :   -0.423841    0.093529
   1 H :   -0.170277    0.075881
   2 H :   -0.124628    0.020361
   3 C :   -0.142295    0.127017
   4 H :   -0.088575    0.000864
   5 Si:    0.706856    0.611293
   6 H :   -0.153968    0.060767
   7 Li:    0.396729    0.010288

  Mayer bond orders larger than 0.100000
B(  0-C ,  3-C ) :   1.4692 B(  0-C ,  4-H ) :   0.9619 B(  0-C ,  5-Si) :   1.1189
B(  1-H ,  5-Si) :   0.9650 B(  2-H ,  3-C ) :   1.2351 B(  3-C ,  5-Si) :   0.2803
B(  3-C ,  6-H ) :   0.1155 B(  3-C ,  7-Li) :   0.2442 B(  5-Si,  6-H ) :   0.7710
B(  6-H ,  7-Li) :   0.1153

Dispersion correction           -0.007563743
FINAL SINGLE POINT ENERGY      -375.612566127012

DIPOLE MOMENT
-------------
                                X             Y             Z
Electronic contribution:      1.21374      -4.38187      -1.17536
Nuclear contribution   :     -0.90522       2.81558       1.17165
                        -----------------------------------------
Total Dipole Moment    :      0.30853      -1.56630      -0.00371
                        -----------------------------------------
Magnitude (a.u.)       :      1.59640
Magnitude (Debye)      :      4.05772

Rotational constants in cm-1:     0.419182     0.179284     0.128388
Rotational constants in MHz : 12566.751634  5374.809128  3848.967152

                             ****ORCA TERMINATED NORMALLY****
TOTAL RUN TIME: 0 days 0 hours 0 minutes 9 seconds 393 msec
