                         Program Version 4.2.0 -  RELEASE  -
|  1> #
|  2> # 111 TPSSh-D3BJ/Def2-TZVPPD
|  3> #
|  4> ! tpssh d3bj def2-tzvppd def2/jk grid4 nofinalgrid
|  5>
|  6> *xyz 0 2
|  7> N          0.85218        0.06581        1.54293
|  8> C         -0.45432        0.04016        1.51127
|  9> H          0.51389       -1.04630       -1.15231
| 10> H         -1.27128       -0.21181        2.19239
| 11> H          0.93075        0.61434       -1.62997
| 12> C          0.02563        0.43731        0.29642
| 13> C          0.17679        0.00817       -1.10677
| 14> H         -0.77364        0.09232       -1.65395
| 15> *
| 16>
| 17> %maxcore 5000
| 18>
| 19> %pal
| 20> nprocs = 24
| 21> end
| 22>
| 23>
| 24>                          ****END OF INPUT****

CARTESIAN COORDINATES (ANGSTROEM)
---------------------------------
  N      0.852180    0.065810    1.542930
  C     -0.454320    0.040160    1.511270
  H      0.513890   -1.046300   -1.152310
  H     -1.271280   -0.211810    2.192390
  H      0.930750    0.614340   -1.629970
  C      0.025630    0.437310    0.296420
  C      0.176790    0.008170   -1.106770
  H     -0.773640    0.092320   -1.653950

 Total Charge           Charge          ....    0
 Multiplicity           Mult            ....    2
 Number of Electrons    NEL             ....   29
 Basis Dimension        Dim             ....  216

ORBITAL ENERGIES
----------------
                 SPIN UP ORBITALS
  NO   OCC          E(Eh)            E(eV)
   0   1.0000     -14.274411      -388.4265
   1   1.0000     -10.183641      -277.1110
   2   1.0000     -10.164132      -276.5801
   3   1.0000     -10.132505      -275.7195
   4   1.0000      -0.968560       -26.3559
   5   1.0000      -0.733325       -19.9548
   6   1.0000      -0.586530       -15.9603
   7   1.0000      -0.561220       -15.2716
   8   1.0000      -0.448422       -12.2022
   9   1.0000      -0.434280       -11.8174
  10   1.0000      -0.411845       -11.2069
  11   1.0000      -0.374327       -10.1859
  12   1.0000      -0.340737        -9.2719
  13   1.0000      -0.273592        -7.4448
  14   1.0000      -0.174511        -4.7487
  15   0.0000      -0.053537        -1.4568
  16   0.0000       0.010793         0.2937
  17   0.0000       0.026382         0.7179
  18   0.0000       0.050202         1.3661
  19   0.0000       0.059415         1.6168

                 SPIN DOWN ORBITALS
  NO   OCC          E(Eh)            E(eV)
   0   1.0000     -14.264462      -388.1557
   1   1.0000     -10.186530      -277.1896
   2   1.0000     -10.151478      -276.2358
   3   1.0000     -10.132366      -275.7157
   4   1.0000      -0.956363       -26.0240
   5   1.0000      -0.725918       -19.7532
   6   1.0000      -0.583893       -15.8885
   7   1.0000      -0.544928       -14.8283
   8   1.0000      -0.441029       -12.0010
   9   1.0000      -0.413065       -11.2401
  10   1.0000      -0.407834       -11.0977
  11   1.0000      -0.353495        -9.6191
  12   1.0000      -0.332385        -9.0447
  13   1.0000      -0.263844        -7.1796
  14   0.0000      -0.060823        -1.6551
  15   0.0000      -0.034604        -0.9416
  16   0.0000       0.014357         0.3907
  17   0.0000       0.026793         0.7291
  18   0.0000       0.056851         1.5470

MULLIKEN ATOMIC CHARGES AND SPIN POPULATIONS
--------------------------------------------
   0 N :   -0.417646    0.412305
   1 C :    0.093561   -0.115705
   2 H :    0.054841    0.041094
   3 H :    0.016272    0.016019
   4 H :    0.014954    0.022447
   5 C :    0.181087    0.640670
   6 C :    0.011313   -0.011645
   7 H :    0.045618   -0.005185
Sum of atomic charges         :   -0.0000000

LOEWDIN ATOMIC CHARGES AND SPIN POPULATIONS
-------------------------------------------
   0 N :    0.138747    0.372460
   1 C :   -0.055232   -0.001769
   2 H :   -0.004922    0.028767
   3 H :    0.003558   -0.011871
   4 H :   -0.015240    0.008711
   5 C :   -0.165471    0.518100
   6 C :    0.114341    0.086153
   7 H :   -0.015782   -0.000551

  Mayer bond orders larger than 0.100000
B(  0-N ,  1-C ) :   1.6851 B(  0-N ,  5-C ) :   0.6058 B(  1-C ,  3-H ) :   0.9628
B(  1-C ,  5-C ) :   1.3112 B(  2-H ,  6-C ) :   0.9380 B(  4-H ,  6-C ) :   0.9798
B(  5-C ,  6-C ) :   0.9825 B(  6-C ,  7-H ) :   0.9809

Dispersion correction           -0.005257822
FINAL SINGLE POINT ENERGY      -171.417573654721

DIPOLE MOMENT
-------------
                                X             Y             Z
Electronic contribution:      0.27437       0.72026       3.67438
Nuclear contribution   :     -1.13576      -0.94785      -4.02666
                        -----------------------------------------
Total Dipole Moment    :     -0.86139      -0.22759      -0.35228
                        -----------------------------------------
Magnitude (a.u.)       :      0.95806
Magnitude (Debye)      :      2.43520

Rotational constants in cm-1:     0.919406     0.218621     0.189338
Rotational constants in MHz : 27563.112958  6554.079895  5676.208610

                             ****ORCA TERMINATED NORMALLY****
TOTAL RUN TIME: 0 days 0 hours 0 minutes 8 seconds 876 msec
