                         Program Version 4.2.0 -  RELEASE  -
|  1> #
|  2> # 123 TPSSh-D3BJ/Def2-TZVPPD
|  3> #
|  4> ! tpssh d3bj def2-tzvppd def2/jk grid4 nofinalgrid
|  5>
|  6> *xyz 0 2
|  7> H         -0.05566       -1.00378        1.35004
|  8> H         -0.85108        0.57288        1.07820
|  9> C          0.00090       -0.05557        0.78344
| 10> H         -0.84105       -0.66759       -1.01558
| 11> H          0.91403        0.47335        1.08996
| 12> H          0.01842        1.61333       -1.60506
| 13> H          0.81267       -0.72579       -1.00914
| 14> N          0.00176       -0.20682       -0.67186
| 15> *
| 16>
| 17> %maxcore 5000
| 18>
| 19> %pal
| 20> nprocs = 24
| 21> end
| 22>
| 23>
| 24>                          ****END OF INPUT****

CARTESIAN COORDINATES (ANGSTROEM)
---------------------------------
  H     -0.055660   -1.003780    1.350040
  H     -0.851080    0.572880    1.078200
  C      0.000900   -0.055570    0.783440
  H     -0.841050   -0.667590   -1.015580
  H      0.914030    0.473350    1.089960
  H      0.018420    1.613330   -1.605060
  H      0.812670   -0.725790   -1.009140
  N      0.001760   -0.206820   -0.671860

 Total Charge           Charge          ....    0
 Multiplicity           Mult            ....    2
 Number of Electrons    NEL             ....   19
 Basis Dimension        Dim             ....  176

ORBITAL ENERGIES
----------------
                 SPIN UP ORBITALS
  NO   OCC          E(Eh)            E(eV)
   0   1.0000     -14.259689      -388.0259
   1   1.0000     -10.142528      -275.9922
   2   1.0000      -0.874540       -23.7974
   3   1.0000      -0.655731       -17.8434
   4   1.0000      -0.491869       -13.3844
   5   1.0000      -0.439899       -11.9702
   6   1.0000      -0.405696       -11.0396
   7   1.0000      -0.366197        -9.9647
   8   1.0000      -0.293278        -7.9805
   9   1.0000      -0.184282        -5.0146
  10   0.0000       0.002011         0.0547
  11   0.0000       0.025082         0.6825
  12   0.0000       0.052945         1.4407
  13   0.0000       0.074910         2.0384
  14   0.0000       0.088493         2.4080

                 SPIN DOWN ORBITALS
  NO   OCC          E(Eh)            E(eV)
   0   1.0000     -14.254783      -387.8924
   1   1.0000     -10.142628      -275.9949
   2   1.0000      -0.868894       -23.6438
   3   1.0000      -0.654218       -17.8022
   4   1.0000      -0.489779       -13.3276
   5   1.0000      -0.436687       -11.8829
   6   1.0000      -0.401714       -10.9312
   7   1.0000      -0.365642        -9.9496
   8   1.0000      -0.249574        -6.7912
   9   0.0000      -0.055024        -1.4973
  10   0.0000       0.008489         0.2310
  11   0.0000       0.028034         0.7629
  12   0.0000       0.055855         1.5199
  13   0.0000       0.077032         2.0962

MULLIKEN ATOMIC CHARGES AND SPIN POPULATIONS
--------------------------------------------
   0 H :    0.092339    0.013838
   1 H :    0.060463   -0.011595
   2 C :   -0.023432    0.013846
   3 H :    0.116336   -0.016432
   4 H :    0.058780   -0.008131
   5 H :   -0.065905    0.864823
   6 H :    0.117922   -0.017663
   7 N :   -0.356502    0.161314
Sum of atomic charges         :    0.0000000

LOEWDIN ATOMIC CHARGES AND SPIN POPULATIONS
-------------------------------------------
   0 H :   -0.019391    0.006088
   1 H :   -0.016865    0.005381
   2 C :    0.047434    0.017820
   3 H :   -0.102514    0.014129
   4 H :   -0.015848    0.004320
   5 H :    0.013314    0.738934
   6 H :   -0.101480    0.013690
   7 N :    0.195351    0.199638

  Mayer bond orders larger than 0.100000
B(  0-H ,  2-C ) :   0.9946 B(  1-H ,  2-C ) :   1.0093 B(  2-C ,  4-H ) :   1.0073
B(  2-C ,  7-N ) :   0.8095 B(  3-H ,  7-N ) :   1.0423 B(  5-H ,  7-N ) :   0.3842
B(  6-H ,  7-N ) :   1.0427

Dispersion correction           -0.003721574
FINAL SINGLE POINT ENERGY       -96.413996843972

DIPOLE MOMENT
-------------
                                X             Y             Z
Electronic contribution:     -0.00860      -1.73178       0.53986
Nuclear contribution   :     -0.00825       0.82489      -0.08847
                        -----------------------------------------
Total Dipole Moment    :     -0.01686      -0.90690       0.45139
                        -----------------------------------------
Magnitude (a.u.)       :      1.01316
Magnitude (Debye)      :      2.57525

Rotational constants in cm-1:     2.000356     0.660608     0.601270
Rotational constants in MHz : 59969.149740 19804.516397 18025.616086

                             ****ORCA TERMINATED NORMALLY****
TOTAL RUN TIME: 0 days 0 hours 0 minutes 6 seconds 199 msec
