                         Program Version 4.2.0 -  RELEASE  -
|  1> #
|  2> # 125 TPSSh-D3BJ/Def2-TZVPPD
|  3> #
|  4> ! tpssh d3bj def2-tzvppd def2/jk grid4 nofinalgrid
|  5>
|  6> *xyz 0 1
|  7> Li        -0.48880       -0.51538       -0.00659
|  8> H         -0.55944        2.54233       -0.00436
|  9> H         -2.17580       -1.82520        0.01329
| 10> C         -0.08896        1.54088       -0.00480
| 11> H         -1.56083       -2.26841        0.00934
| 12> Cl         1.44004       -1.55839       -0.00318
| 13> H          1.87023        0.32576       -0.00203
| 14> S          1.56356        1.75840       -0.00167
| 15> *
| 16>
| 17> %maxcore 5000
| 18>
| 19> %pal
| 20> nprocs = 24
| 21> end
| 22>
| 23>
| 24>                          ****END OF INPUT****

CARTESIAN COORDINATES (ANGSTROEM)
---------------------------------
  Li    -0.488800   -0.515380   -0.006590
  H     -0.559440    2.542330   -0.004360
  H     -2.175800   -1.825200    0.013290
  C     -0.088960    1.540880   -0.004800
  H     -1.560830   -2.268410    0.009340
  Cl     1.440040   -1.558390   -0.003180
  H      1.870230    0.325760   -0.002030
  S      1.563560    1.758400   -0.001670

 Total Charge           Charge          ....    0
 Multiplicity           Mult            ....    1
 Number of Electrons    NEL             ....   46
 Basis Dimension        Dim             ....  229

ORBITAL ENERGIES
----------------

  NO   OCC          E(Eh)            E(eV)
   0   2.0000    -101.293224     -2756.3288
   1   2.0000     -88.762691     -2415.3556
   2   2.0000     -10.177445      -276.9424
   3   2.0000      -9.295307      -252.9382
   4   2.0000      -7.908786      -215.2090
   5   2.0000      -7.037776      -191.5076
   6   2.0000      -7.036866      -191.4829
   7   2.0000      -7.036139      -191.4631
   8   2.0000      -5.856263      -159.3570
   9   2.0000      -5.855851      -159.3458
  10   2.0000      -5.853223      -159.2743
  11   2.0000      -1.938641       -52.7531
  12   2.0000      -0.795934       -21.6585
  13   2.0000      -0.710793       -19.3417
  14   2.0000      -0.586514       -15.9599
  15   2.0000      -0.473562       -12.8863
  16   2.0000      -0.414909       -11.2903
  17   2.0000      -0.400112       -10.8876
  18   2.0000      -0.328463        -8.9379
  19   2.0000      -0.276050        -7.5117
  20   2.0000      -0.267720        -7.2850
  21   2.0000      -0.249789        -6.7971
  22   2.0000      -0.237881        -6.4731
  23   0.0000      -0.124072        -3.3762
  24   0.0000      -0.019944        -0.5427
  25   0.0000      -0.002324        -0.0632
  26   0.0000       0.004976         0.1354
  27   0.0000       0.014626         0.3980

MULLIKEN ATOMIC CHARGES
-----------------------
   0 Li:    0.760429
   1 H :   -0.024859
   2 H :   -0.068131
   3 C :   -0.196359
   4 H :    0.128674
   5 Cl:   -0.771510
   6 H :    0.340747
   7 S :   -0.168990
Sum of atomic charges:    0.0000000

LOEWDIN ATOMIC CHARGES
----------------------
   0 Li:   -0.011651
   1 H :   -0.170402
   2 H :    0.089939
   3 C :   -0.358907
   4 H :    0.064191
   5 Cl:   -0.030532
   6 H :   -0.417095
   7 S :    0.834456

  Mayer bond orders larger than 0.100000
B(  0-Li,  5-Cl) :   0.1914 B(  1-H ,  3-C ) :   1.1652 B(  2-H ,  4-H ) :   0.9241
B(  3-C ,  7-S ) :   1.6530 B(  5-Cl,  6-H ) :   0.1240 B(  6-H ,  7-S ) :   0.6768

Dispersion correction           -0.008025104
FINAL SINGLE POINT ENERGY      -906.505991939530

DIPOLE MOMENT
-------------
                                X             Y             Z
Electronic contribution:      3.82638      -0.12366      -0.03065
Nuclear contribution   :     -5.38329       1.10078       0.02957
                        -----------------------------------------
Total Dipole Moment    :     -1.55692       0.97712      -0.00109
                        -----------------------------------------
Magnitude (a.u.)       :      1.83814
Magnitude (Debye)      :      4.67218

Rotational constants in cm-1:     0.253463     0.073830     0.057176
Rotational constants in MHz :  7598.615767  2213.361097  1714.083710

                             ****ORCA TERMINATED NORMALLY****
TOTAL RUN TIME: 0 days 0 hours 0 minutes 7 seconds 38 msec
