                         Program Version 4.2.0 -  RELEASE  -
|  1> #
|  2> # 136 TPSSh-D3BJ/Def2-TZVPPD
|  3> #
|  4> ! tpssh d3bj def2-tzvppd def2/jk grid4 nofinalgrid
|  5>
|  6> *xyz 0 1
|  7> H         -0.64763        2.95877       -0.31431
|  8> H         -0.38809        2.29902       -0.56811
|  9> H         -0.46982        0.02713        1.23682
| 10> H         -0.44619       -2.23309       -1.25807
| 11> H          1.15514       -0.83076        1.35211
| 12> O          0.58676       -0.20120       -0.67466
| 13> C          0.25357       -0.64235        0.76247
| 14> B         -0.04374       -1.37752       -0.53625
| 15> *
| 16>
| 17> %maxcore 5000
| 18>
| 19> %pal
| 20> nprocs = 24
| 21> end
| 22>
| 23>
| 24>                          ****END OF INPUT****

CARTESIAN COORDINATES (ANGSTROEM)
---------------------------------
  H     -0.647630    2.958770   -0.314310
  H     -0.388090    2.299020   -0.568110
  H     -0.469820    0.027130    1.236820
  H     -0.446190   -2.233090   -1.258070
  H      1.155140   -0.830760    1.352110
  O      0.586760   -0.201200   -0.674660
  C      0.253570   -0.642350    0.762470
  B     -0.043740   -1.377520   -0.536250

 Total Charge           Charge          ....    0
 Multiplicity           Mult            ....    1
 Number of Electrons    NEL             ....   24
 Basis Dimension        Dim             ....  199

ORBITAL ENERGIES
----------------

  NO   OCC          E(Eh)            E(eV)
   0   2.0000     -19.086518      -519.3706
   1   2.0000     -10.159646      -276.4580
   2   2.0000      -6.726233      -183.0301
   3   2.0000      -1.023989       -27.8642
   4   2.0000      -0.647638       -17.6231
   5   2.0000      -0.487058       -13.2535
   6   2.0000      -0.453839       -12.3496
   7   2.0000      -0.443966       -12.0809
   8   2.0000      -0.403719       -10.9857
   9   2.0000      -0.371002       -10.0955
  10   2.0000      -0.312520        -8.5041
  11   2.0000      -0.281376        -7.6566
  12   0.0000      -0.036206        -0.9852
  13   0.0000       0.008859         0.2411
  14   0.0000       0.015974         0.4347
  15   0.0000       0.027912         0.7595
  16   0.0000       0.053023         1.4428

MULLIKEN ATOMIC CHARGES
-----------------------
   0 H :    0.071854
   1 H :   -0.067532
   2 H :    0.051169
   3 H :    0.026149
   4 H :    0.041052
   5 O :   -0.411209
   6 C :    0.202684
   7 B :    0.085835
Sum of atomic charges:   -0.0000000

LOEWDIN ATOMIC CHARGES
----------------------
   0 H :    0.032447
   1 H :    0.011011
   2 H :   -0.020425
   3 H :    0.015800
   4 H :   -0.016065
   5 O :    0.046877
   6 C :    0.127186
   7 B :   -0.196831

  Mayer bond orders larger than 0.100000
B(  0-H ,  1-H ) :   0.9856 B(  2-H ,  6-C ) :   0.9814 B(  3-H ,  7-B ) :   0.9965
B(  4-H ,  6-C ) :   0.9917 B(  5-O ,  6-C ) :   0.7244 B(  5-O ,  7-B ) :   1.3142
B(  6-C ,  7-B ) :   1.0411

Dispersion correction           -0.003391933
FINAL SINGLE POINT ENERGY      -141.214270205540

DIPOLE MOMENT
-------------
                                X             Y             Z
Electronic contribution:      1.53457      -5.60537      -1.07478
Nuclear contribution   :     -1.71035       5.24617       1.44476
                        -----------------------------------------
Total Dipole Moment    :     -0.17577      -0.35920       0.36998
                        -----------------------------------------
Magnitude (a.u.)       :      0.54480
Magnitude (Debye)      :      1.38478

Rotational constants in cm-1:     0.613602     0.430998     0.306642
Rotational constants in MHz : 18395.316675 12920.983545  9192.908699

                             ****ORCA TERMINATED NORMALLY****
TOTAL RUN TIME: 0 days 0 hours 0 minutes 6 seconds 635 msec
