                         Program Version 4.2.0 -  RELEASE  -
|  1> #
|  2> # 138 TPSSh-D3BJ/Def2-TZVPPD
|  3> #
|  4> ! tpssh d3bj def2-tzvppd def2/jk grid4 nofinalgrid
|  5>
|  6> *xyz 0 1
|  7> H          0.64849       -1.47778       -0.13722
|  8> H         -0.62659       -0.18590       -3.09890
|  9> H         -0.40094       -0.71477       -2.61128
| 10> H          0.74472        0.82794        2.20080
| 11> H          0.41684       -1.04544        0.48242
| 12> H         -0.86873        0.85706        2.13389
| 13> Na         0.12711        1.09566       -0.53418
| 14> N         -0.04090        0.64323        1.56447
| 15> *
| 16>
| 17> %maxcore 5000
| 18>
| 19> %pal
| 20> nprocs = 24
| 21> end
| 22>
| 23>
| 24>                          ****END OF INPUT****

CARTESIAN COORDINATES (ANGSTROEM)
---------------------------------
  H      0.648490   -1.477780   -0.137220
  H     -0.626590   -0.185900   -3.098900
  H     -0.400940   -0.714770   -2.611280
  H      0.744720    0.827940    2.200800
  H      0.416840   -1.045440    0.482420
  H     -0.868730    0.857060    2.133890
  Na     0.127110    1.095660   -0.534180
  N     -0.040900    0.643230    1.564470

 Total Charge           Charge          ....    0
 Multiplicity           Mult            ....    1
 Number of Electrons    NEL             ....   24
 Basis Dimension        Dim             ....  174

ORBITAL ENERGIES
----------------

  NO   OCC          E(Eh)            E(eV)
   0   2.0000     -38.363104     -1043.9131
   1   2.0000     -14.127605      -384.4317
   2   2.0000      -2.171001       -59.0759
   3   2.0000      -1.098320       -29.8868
   4   2.0000      -1.097375       -29.8611
   5   2.0000      -1.093692       -29.7609
   6   2.0000      -0.691100       -18.8058
   7   2.0000      -0.459359       -12.4998
   8   2.0000      -0.385653       -10.4942
   9   2.0000      -0.340589        -9.2679
  10   2.0000      -0.218636        -5.9494
  11   2.0000      -0.136624        -3.7177
  12   0.0000      -0.046763        -1.2725
  13   0.0000      -0.007170        -0.1951
  14   0.0000       0.002866         0.0780
  15   0.0000       0.008394         0.2284
  16   0.0000       0.024196         0.6584

MULLIKEN ATOMIC CHARGES
-----------------------
   0 H :   -0.092413
   1 H :   -0.024553
   2 H :    0.047910
   3 H :    0.004875
   4 H :    0.075297
   5 H :   -0.037645
   6 Na:    0.763605
   7 N :   -0.737075
Sum of atomic charges:    0.0000000

LOEWDIN ATOMIC CHARGES
----------------------
   0 H :    0.034008
   1 H :    0.045738
   2 H :    0.031102
   3 H :   -0.294527
   4 H :   -0.066403
   5 H :   -0.296361
   6 Na:    0.505630
   7 N :    0.040813

  Mayer bond orders larger than 0.100000
B(  0-H ,  4-H ) :   1.0136 B(  1-H ,  2-H ) :   0.9775 B(  3-H ,  7-N ) :   1.2114
B(  5-H ,  7-N ) :   1.2667 B(  6-Na,  7-N ) :   0.2996

Dispersion correction           -0.003561034
FINAL SINGLE POINT ENERGY      -220.630725415929

DIPOLE MOMENT
-------------
                                X             Y             Z
Electronic contribution:      0.52190       6.95562      -0.85701
Nuclear contribution   :     -0.44551      -6.18803      -1.41111
                        -----------------------------------------
Total Dipole Moment    :      0.07638       0.76759      -2.26813
                        -----------------------------------------
Magnitude (a.u.)       :      2.39571
Magnitude (Debye)      :      6.08942

Rotational constants in cm-1:     0.993150     0.247328     0.211706
Rotational constants in MHz : 29773.882147  7414.712908  6346.774487

                             ****ORCA TERMINATED NORMALLY****
TOTAL RUN TIME: 0 days 0 hours 0 minutes 5 seconds 167 msec
