                         Program Version 4.2.0 -  RELEASE  -
|  1> #
|  2> # 143 TPSSh-D3BJ/Def2-TZVPPD
|  3> #
|  4> ! tpssh d3bj def2-tzvppd def2/jk grid4 nofinalgrid
|  5>
|  6> *xyz 0 1
|  7> H          1.52165        0.00105        0.54476
|  8> C         -0.07322       -0.00002       -0.82132
|  9> C         -0.09157        0.00017        1.71374
| 10> H          0.24008        0.90261       -1.36729
| 11> N          0.49648       -0.00048        0.54416
| 12> H          0.26500       -0.88652       -1.37867
| 13> H         -1.19216       -0.00126        1.49873
| 14> H         -1.16627       -0.01555       -0.73412
| 15> *
| 16>
| 17> %maxcore 5000
| 18>
| 19> %pal
| 20> nprocs = 24
| 21> end
| 22>
| 23>
| 24>                          ****END OF INPUT****

CARTESIAN COORDINATES (ANGSTROEM)
---------------------------------
  H      1.521650    0.001050    0.544760
  C     -0.073220   -0.000020   -0.821320
  C     -0.091570    0.000170    1.713740
  H      0.240080    0.902610   -1.367290
  N      0.496480   -0.000480    0.544160
  H      0.265000   -0.886520   -1.378670
  H     -1.192160   -0.001260    1.498730
  H     -1.166270   -0.015550   -0.734120

 Total Charge           Charge          ....    0
 Multiplicity           Mult            ....    1
 Number of Electrons    NEL             ....   24
 Basis Dimension        Dim             ....  196

ORBITAL ENERGIES
----------------

  NO   OCC          E(Eh)            E(eV)
   0   2.0000     -14.308989      -389.3674
   1   2.0000     -10.163847      -276.5723
   2   2.0000     -10.120019      -275.3797
   3   2.0000      -0.930958       -25.3327
   4   2.0000      -0.710492       -19.3335
   5   2.0000      -0.607111       -16.5203
   6   2.0000      -0.480390       -13.0721
   7   2.0000      -0.444424       -12.0934
   8   2.0000      -0.422485       -11.4964
   9   2.0000      -0.386580       -10.5194
  10   2.0000      -0.312624        -8.5069
  11   2.0000      -0.191546        -5.2122
  12   0.0000      -0.029686        -0.8078
  13   0.0000      -0.001421        -0.0387
  14   0.0000       0.023381         0.6362
  15   0.0000       0.045806         1.2465
  16   0.0000       0.065677         1.7872

MULLIKEN ATOMIC CHARGES
-----------------------
   0 H :    0.069258
   1 C :   -0.038902
   2 C :   -0.139116
   3 H :    0.072082
   4 N :   -0.036011
   5 H :    0.072766
   6 H :   -0.033965
   7 H :    0.033888
Sum of atomic charges:   -0.0000000

LOEWDIN ATOMIC CHARGES
----------------------
   0 H :   -0.058306
   1 C :    0.143373
   2 C :    0.074428
   3 H :   -0.006748
   4 N :   -0.019243
   5 H :   -0.006843
   6 H :   -0.116903
   7 H :   -0.009757

  Mayer bond orders larger than 0.100000
B(  0-H ,  4-N ) :   1.0257 B(  1-C ,  3-H ) :   0.9945 B(  1-C ,  4-N ) :   0.8528
B(  1-C ,  5-H ) :   0.9941 B(  1-C ,  7-H ) :   1.0011 B(  2-C ,  4-N ) :   1.6458
B(  2-C ,  6-H ) :   1.0939

Dispersion correction           -0.004455036
FINAL SINGLE POINT ENERGY      -133.949742433621

DIPOLE MOMENT
-------------
                                X             Y             Z
Electronic contribution:      0.94322      -0.00070       1.67662
Nuclear contribution   :     -0.81448       0.00081      -3.18683
                        -----------------------------------------
Total Dipole Moment    :      0.12874       0.00010      -1.51021
                        -----------------------------------------
Magnitude (a.u.)       :      1.51569
Magnitude (Debye)      :      3.85257

Rotational constants in cm-1:     1.686117     0.341111     0.300010
Rotational constants in MHz : 50548.520534 10226.261318  8994.065933

                             ****ORCA TERMINATED NORMALLY****
TOTAL RUN TIME: 0 days 0 hours 0 minutes 6 seconds 640 msec
