                         Program Version 4.2.0 -  RELEASE  -
|  1> #
|  2> # 168_be TPSSh-D3BJ/Def2-TZVPPD
|  3> #
|  4> ! tpssh d3bj def2-tzvppd def2/jk grid4 nofinalgrid
|  5>
|  6> *xyz 0 1
|  7> Be         0.00000        0.00000        0.00000
|  8> H          0.00000        0.00000       -1.34402
|  9> H          0.00000        0.00000        1.34402
| 10> *
| 11>
| 12> %maxcore 5000
| 13>
| 14> %pal
| 15> nprocs = 24
| 16> end
| 17>
| 18>
| 19>                          ****END OF INPUT****

CARTESIAN COORDINATES (ANGSTROEM)
---------------------------------
  Be     0.000000    0.000000    0.000000
  H      0.000000    0.000000   -1.344020
  H      0.000000    0.000000    1.344020

 Total Charge           Charge          ....    0
 Multiplicity           Mult            ....    1
 Number of Electrons    NEL             ....    6
 Basis Dimension        Dim             ....   56

ORBITAL ENERGIES
----------------

  NO   OCC          E(Eh)            E(eV)
   0   2.0000      -3.989504      -108.5599
   1   2.0000      -0.337951        -9.1961
   2   2.0000      -0.302529        -8.2322
   3   0.0000      -0.041132        -1.1193
   4   0.0000      -0.041132        -1.1193
   5   0.0000       0.024857         0.6764
   6   0.0000       0.035873         0.9761
   7   0.0000       0.063341         1.7236

MULLIKEN ATOMIC CHARGES
-----------------------
   0 Be:    0.186128
   1 H :   -0.093064
   2 H :   -0.093064
Sum of atomic charges:   -0.0000000

LOEWDIN ATOMIC CHARGES
----------------------
   0 Be:    0.370338
   1 H :   -0.185169
   2 H :   -0.185169

  Mayer bond orders larger than 0.100000
B(  0-Be,  1-H ) :   0.9753 B(  0-Be,  2-H ) :   0.9753 B(  1-H ,  2-H ) :   0.1158

Dispersion correction           -0.000603707
FINAL SINGLE POINT ENERGY       -15.920335718191

DIPOLE MOMENT
-------------
                                X             Y             Z
Electronic contribution:      0.00000      -0.00000       0.00000
Nuclear contribution   :      0.00000       0.00000       0.00000
                        -----------------------------------------
Total Dipole Moment    :      0.00000      -0.00000       0.00000
                        -----------------------------------------
Magnitude (a.u.)       :      0.00000
Magnitude (Debye)      :      0.00000

Rotational constants in cm-1:     0.000000     4.629082     4.629082
Rotational constants in MHz :     0.000000 138776.398767 138776.398767

                             ****ORCA TERMINATED NORMALLY****
TOTAL RUN TIME: 0 days 0 hours 0 minutes 3 seconds 0 msec
