                         Program Version 4.2.0 -  RELEASE  -
|  1> #
|  2> # 169_b TPSSh-D3BJ/Def2-TZVPPD
|  3> #
|  4> ! tpssh d3bj def2-tzvppd def2/jk grid4 nofinalgrid
|  5>
|  6> *xyz 0 1
|  7> B          0.00000        0.00000        0.00000
|  8> H          0.60006        1.03933        0.00000
|  9> H          0.60006       -1.03933        0.00000
| 10> H         -1.20012        0.00000        0.00000
| 11> *
| 12>
| 13> %maxcore 5000
| 14>
| 15> %pal
| 16> nprocs = 24
| 17> end
| 18>
| 19>
| 20>                          ****END OF INPUT****

CARTESIAN COORDINATES (ANGSTROEM)
---------------------------------
  B      0.000000    0.000000    0.000000
  H      0.600060    1.039330    0.000000
  H      0.600060   -1.039330    0.000000
  H     -1.200120    0.000000    0.000000

 Total Charge           Charge          ....    0
 Multiplicity           Mult            ....    1
 Number of Electrons    NEL             ....    8
 Basis Dimension        Dim             ....   88

ORBITAL ENERGIES
----------------

  NO   OCC          E(Eh)            E(eV)
   0   2.0000      -6.715249      -182.7312
   1   2.0000      -0.501134       -13.6366
   2   2.0000      -0.340258        -9.2589
   3   2.0000      -0.340257        -9.2589
   4   0.0000      -0.085678        -2.3314
   5   0.0000       0.011984         0.3261
   6   0.0000       0.079799         2.1714
   7   0.0000       0.079810         2.1717
   8   0.0000       0.088872         2.4183

MULLIKEN ATOMIC CHARGES
-----------------------
   0 B :   -0.061380
   1 H :    0.020661
   2 H :    0.020661
   3 H :    0.020059
Sum of atomic charges:   -0.0000000

LOEWDIN ATOMIC CHARGES
----------------------
   0 B :    0.259055
   1 H :   -0.086346
   2 H :   -0.086346
   3 H :   -0.086363

  Mayer bond orders larger than 0.100000
B(  0-B ,  1-H ) :   0.9947 B(  0-B ,  2-H ) :   0.9947 B(  0-B ,  3-H ) :   0.9949

Dispersion correction           -0.000895835
FINAL SINGLE POINT ENERGY       -26.625710603318

DIPOLE MOMENT
-------------
                                X             Y             Z
Electronic contribution:      0.00002       0.00000      -0.00000
Nuclear contribution   :      0.00000       0.00000       0.00000
                        -----------------------------------------
Total Dipole Moment    :      0.00002       0.00000      -0.00000
                        -----------------------------------------
Magnitude (a.u.)       :      0.00002
Magnitude (Debye)      :      0.00005

Rotational constants in cm-1:     7.741042     7.740977     3.870505
Rotational constants in MHz : 232070.613118 232068.644801 116034.814478

                             ****ORCA TERMINATED NORMALLY****
TOTAL RUN TIME: 0 days 0 hours 0 minutes 2 seconds 861 msec
