                         Program Version 4.2.0 -  RELEASE  -
|  1> #
|  2> # 170_c TPSSh-D3BJ/Def2-TZVPPD
|  3> #
|  4> ! tpssh d3bj def2-tzvppd def2/jk grid4 nofinalgrid
|  5>
|  6> *xyz 0 1
|  7> C          0.00000        0.00000        0.00000
|  8> H          0.63307        0.63307       -0.63307
|  9> H         -0.63307       -0.63307       -0.63307
| 10> H          0.63307       -0.63307        0.63307
| 11> H         -0.63307        0.63307        0.63307
| 12> *
| 13>
| 14> %maxcore 5000
| 15>
| 16> %pal
| 17> nprocs = 24
| 18> end
| 19>
| 20>
| 21>                          ****END OF INPUT****

CARTESIAN COORDINATES (ANGSTROEM)
---------------------------------
  C      0.000000    0.000000    0.000000
  H      0.633070    0.633070   -0.633070
  H     -0.633070   -0.633070   -0.633070
  H      0.633070   -0.633070    0.633070
  H     -0.633070    0.633070    0.633070

 Total Charge           Charge          ....    0
 Multiplicity           Mult            ....    1
 Number of Electrons    NEL             ....   10
 Basis Dimension        Dim             ....  105

ORBITAL ENERGIES
----------------

  NO   OCC          E(Eh)            E(eV)
   0   2.0000     -10.097863      -274.7768
   1   2.0000      -0.674564       -18.3558
   2   2.0000      -0.375388       -10.2148
   3   2.0000      -0.375388       -10.2148
   4   2.0000      -0.375388       -10.2148
   5   0.0000       0.012380         0.3369
   6   0.0000       0.094822         2.5802
   7   0.0000       0.094822         2.5802
   8   0.0000       0.094822         2.5803
   9   0.0000       0.118778         3.2321

MULLIKEN ATOMIC CHARGES
-----------------------
   0 C :   -0.313604
   1 H :    0.078402
   2 H :    0.078402
   3 H :    0.078400
   4 H :    0.078401
Sum of atomic charges:    0.0000000

LOEWDIN ATOMIC CHARGES
----------------------
   0 C :    0.257248
   1 H :   -0.064312
   2 H :   -0.064312
   3 H :   -0.064312
   4 H :   -0.064312

  Mayer bond orders larger than 0.100000
B(  0-C ,  1-H ) :   0.9911 B(  0-C ,  2-H ) :   0.9911 B(  0-C ,  3-H ) :   0.9911
B(  0-C ,  4-H ) :   0.9911

Dispersion correction           -0.001228595
FINAL SINGLE POINT ENERGY       -40.539526264023

DIPOLE MOMENT
-------------
                                X             Y             Z
Electronic contribution:      0.00000      -0.00000       0.00000
Nuclear contribution   :      0.00000       0.00000       0.00000
                        -----------------------------------------
Total Dipole Moment    :      0.00000      -0.00000       0.00000
                        -----------------------------------------
Magnitude (a.u.)       :      0.00000
Magnitude (Debye)      :      0.00000

Rotational constants in cm-1:     5.216064     5.216064     5.216064
Rotational constants in MHz : 156373.665933 156373.665933 156373.665933

                             ****ORCA TERMINATED NORMALLY****
TOTAL RUN TIME: 0 days 0 hours 0 minutes 3 seconds 499 msec
