                         Program Version 4.2.0 -  RELEASE  -
|  1> #
|  2> # 171_n TPSSh-D3BJ/Def2-TZVPPD
|  3> #
|  4> ! tpssh d3bj def2-tzvppd def2/jk grid4 nofinalgrid
|  5>
|  6> *xyz 0 1
|  7> N          0.00000        0.00000        0.55227
|  8> N          0.00000        0.00000       -0.55227
|  9> *
| 10>
| 11> %maxcore 5000
| 12>
| 13> %pal
| 14> nprocs = 24
| 15> end
| 16>
| 17>
| 18>                          ****END OF INPUT****

CARTESIAN COORDINATES (ANGSTROEM)
---------------------------------
  N      0.000000    0.000000    0.552270
  N      0.000000    0.000000   -0.552270

 Total Charge           Charge          ....    0
 Multiplicity           Mult            ....    1
 Number of Electrons    NEL             ....   14
 Basis Dimension        Dim             ....   74

ORBITAL ENERGIES
----------------

  NO   OCC          E(Eh)            E(eV)
   0   2.0000     -14.351962      -390.5367
   1   2.0000     -14.350537      -390.4980
   2   2.0000      -1.095497       -29.8100
   3   2.0000      -0.540933       -14.7195
   4   2.0000      -0.448630       -12.2078
   5   2.0000      -0.448630       -12.2078
   6   2.0000      -0.410474       -11.1696
   7   0.0000      -0.047419        -1.2903
   8   0.0000      -0.047419        -1.2903
   9   0.0000       0.056827         1.5463
  10   0.0000       0.093264         2.5379
  11   0.0000       0.222666         6.0591

MULLIKEN ATOMIC CHARGES
-----------------------
   0 N :   -0.000001
   1 N :    0.000001
Sum of atomic charges:    0.0000000

LOEWDIN ATOMIC CHARGES
----------------------
   0 N :   -0.000000
   1 N :    0.000000

  Mayer bond orders larger than 0.100000
B(  0-N ,  1-N ) :   2.6867

Dispersion correction           -0.000471396
FINAL SINGLE POINT ENERGY      -109.574040088262

DIPOLE MOMENT
-------------
                                X             Y             Z
Electronic contribution:      0.00000       0.00000      -0.00000
Nuclear contribution   :      0.00000       0.00000       0.00000
                        -----------------------------------------
Total Dipole Moment    :      0.00000       0.00000      -0.00000
                        -----------------------------------------
Magnitude (a.u.)       :      0.00000
Magnitude (Debye)      :      0.00000

Rotational constants in cm-1:     0.000000     1.972963     1.972963
Rotational constants in MHz :     0.000000 59147.933340 59147.933340

                             ****ORCA TERMINATED NORMALLY****
TOTAL RUN TIME: 0 days 0 hours 0 minutes 2 seconds 457 msec
