                         Program Version 4.2.0 -  RELEASE  -
|  1> #
|  2> # 172_o TPSSh-D3BJ/Def2-TZVPPD
|  3> #
|  4> ! tpssh d3bj def2-tzvppd def2/jk grid4 nofinalgrid
|  5>
|  6> *xyz 0 3
|  7> O          0.00000        0.00000        0.61122
|  8> O          0.00000        0.00000       -0.61122
|  9> *
| 10>
| 11> %maxcore 5000
| 12>
| 13> %pal
| 14> nprocs = 24
| 15> end
| 16>
| 17>
| 18>                          ****END OF INPUT****

CARTESIAN COORDINATES (ANGSTROEM)
---------------------------------
  O      0.000000    0.000000    0.611220
  O      0.000000    0.000000   -0.611220

 Total Charge           Charge          ....    0
 Multiplicity           Mult            ....    3
 Number of Electrons    NEL             ....   16
 Basis Dimension        Dim             ....   80

ORBITAL ENERGIES
----------------
                 SPIN UP ORBITALS
  NO   OCC          E(Eh)            E(eV)
   0   1.0000     -19.216289      -522.9018
   1   1.0000     -19.216194      -522.8992
   2   1.0000      -1.267730       -34.4967
   3   1.0000      -0.825565       -22.4648
   4   1.0000      -0.537922       -14.6376
   5   1.0000      -0.537922       -14.6376
   6   1.0000      -0.528374       -14.3778
   7   1.0000      -0.293944        -7.9986
   8   1.0000      -0.293944        -7.9986
   9   0.0000       0.040955         1.1144
  10   0.0000       0.050195         1.3659
  11   0.0000       0.072181         1.9642
  12   0.0000       0.072181         1.9642
  13   0.0000       0.119957         3.2642

                 SPIN DOWN ORBITALS
  NO   OCC          E(Eh)            E(eV)
   0   1.0000     -19.184276      -522.0307
   1   1.0000     -19.184108      -522.0261
   2   1.0000      -1.214465       -33.0473
   3   1.0000      -0.740580       -20.1522
   4   1.0000      -0.495323       -13.4784
   5   1.0000      -0.441793       -12.0218
   6   1.0000      -0.441793       -12.0218
   7   0.0000      -0.140208        -3.8153
   8   0.0000      -0.140208        -3.8153
   9   0.0000       0.050000         1.3606
  10   0.0000       0.058137         1.5820
  11   0.0000       0.079096         2.1523

MULLIKEN ATOMIC CHARGES AND SPIN POPULATIONS
--------------------------------------------
   0 O :   -0.000000    1.000000
   1 O :    0.000000    1.000000
Sum of atomic charges         :   -0.0000000

LOEWDIN ATOMIC CHARGES AND SPIN POPULATIONS
-------------------------------------------
   0 O :   -0.000000    1.000000
   1 O :    0.000000    1.000000

  Mayer bond orders larger than 0.100000
B(  0-O ,  1-O ) :   1.6626

Dispersion correction           -0.000286991
FINAL SINGLE POINT ENERGY      -150.391754786475

DIPOLE MOMENT
-------------
                                X             Y             Z
Electronic contribution:     -0.00000       0.00000       0.00000
Nuclear contribution   :      0.00000       0.00000       0.00000
                        -----------------------------------------
Total Dipole Moment    :     -0.00000       0.00000       0.00000
                        -----------------------------------------
Magnitude (a.u.)       :      0.00000
Magnitude (Debye)      :      0.00000

Rotational constants in cm-1:     0.000000     1.410194     1.410194
Rotational constants in MHz :     0.000000 42276.561443 42276.561443

                             ****ORCA TERMINATED NORMALLY****
TOTAL RUN TIME: 0 days 0 hours 0 minutes 2 seconds 694 msec
