                         Program Version 4.2.0 -  RELEASE  -
|  1> #
|  2> # 173_f TPSSh-D3BJ/Def2-TZVPPD
|  3> #
|  4> ! tpssh d3bj def2-tzvppd def2/jk grid4 nofinalgrid
|  5>
|  6> *xyz 0 1
|  7> F          0.00000        0.00000        0.71109
|  8> F          0.00000        0.00000       -0.71109
|  9> *
| 10>
| 11> %maxcore 5000
| 12>
| 13> %pal
| 14> nprocs = 24
| 15> end
| 16>
| 17>
| 18>                          ****END OF INPUT****

CARTESIAN COORDINATES (ANGSTROEM)
---------------------------------
  F      0.000000    0.000000    0.711090
  F      0.000000    0.000000   -0.711090

 Total Charge           Charge          ....    0
 Multiplicity           Mult            ....    1
 Number of Electrons    NEL             ....   18
 Basis Dimension        Dim             ....   80

ORBITAL ENERGIES
----------------

  NO   OCC          E(Eh)            E(eV)
   0   2.0000     -24.712854      -672.4710
   1   2.0000     -24.712853      -672.4709
   2   2.0000      -1.318230       -35.8709
   3   2.0000      -1.091787       -29.7090
   4   2.0000      -0.585796       -15.9403
   5   2.0000      -0.513108       -13.9624
   6   2.0000      -0.513108       -13.9624
   7   2.0000      -0.389624       -10.6022
   8   2.0000      -0.389624       -10.6022
   9   0.0000      -0.185867        -5.0577
  10   0.0000       0.069058         1.8792
  11   0.0000       0.073236         1.9928
  12   0.0000       0.094018         2.5584
  13   0.0000       0.094018         2.5584

MULLIKEN ATOMIC CHARGES
-----------------------
   0 F :    0.000000
   1 F :   -0.000000
Sum of atomic charges:   -0.0000000

LOEWDIN ATOMIC CHARGES
----------------------
   0 F :    0.000000
   1 F :   -0.000000

  Mayer bond orders larger than 0.100000
B(  0-F ,  1-F ) :   0.8698

Dispersion correction           -0.000175798
FINAL SINGLE POINT ENERGY      -199.595692803382

DIPOLE MOMENT
-------------
                                X             Y             Z
Electronic contribution:      0.00000       0.00000      -0.00000
Nuclear contribution   :      0.00000       0.00000       0.00000
                        -----------------------------------------
Total Dipole Moment    :      0.00000       0.00000      -0.00000
                        -----------------------------------------
Magnitude (a.u.)       :      0.00000
Magnitude (Debye)      :      0.00000

Rotational constants in cm-1:     0.000000     0.877425     0.877425
Rotational constants in MHz :     0.000000 26304.532186 26304.532186

                             ****ORCA TERMINATED NORMALLY****
TOTAL RUN TIME: 0 days 0 hours 0 minutes 3 seconds 90 msec
