                         Program Version 4.2.0 -  RELEASE  -
|  1> #
|  2> # 176_al TPSSh-D3BJ/Def2-TZVPPD
|  3> #
|  4> ! tpssh d3bj def2-tzvppd def2/jk grid4 nofinalgrid
|  5>
|  6> *xyz 0 1
|  7> Al         0.00000        0.00000        0.00000
|  8> H          0.80046       -1.38644        0.00000
|  9> H          0.80046        1.38644        0.00000
| 10> H         -1.60093        0.00000        0.00000
| 11> *
| 12>
| 13> %maxcore 5000
| 14>
| 15> %pal
| 16> nprocs = 24
| 17> end
| 18>
| 19>
| 20>                          ****END OF INPUT****

CARTESIAN COORDINATES (ANGSTROEM)
---------------------------------
  Al     0.000000    0.000000    0.000000
  H      0.800460   -1.386440    0.000000
  H      0.800460    1.386440    0.000000
  H     -1.600930    0.000000    0.000000

 Total Charge           Charge          ....    0
 Multiplicity           Mult            ....    1
 Number of Electrons    NEL             ....   16
 Basis Dimension        Dim             ....   99

ORBITAL ENERGIES
----------------

  NO   OCC          E(Eh)            E(eV)
   0   2.0000     -55.906584     -1521.2955
   1   2.0000      -4.081855      -111.0729
   2   2.0000      -2.631630       -71.6103
   3   2.0000      -2.621024       -71.3217
   4   2.0000      -2.621023       -71.3217
   5   2.0000      -0.405229       -11.0268
   6   2.0000      -0.294871        -8.0239
   7   2.0000      -0.294870        -8.0238
   8   0.0000      -0.074737        -2.0337
   9   0.0000       0.011444         0.3114
  10   0.0000       0.020875         0.5680
  11   0.0000       0.032239         0.8773
  12   0.0000       0.032240         0.8773

MULLIKEN ATOMIC CHARGES
-----------------------
   0 Al:    0.550387
   1 H :   -0.183488
   2 H :   -0.183488
   3 H :   -0.183411
Sum of atomic charges:   -0.0000000

LOEWDIN ATOMIC CHARGES
----------------------
   0 Al:    0.650558
   1 H :   -0.216855
   2 H :   -0.216855
   3 H :   -0.216848

  Mayer bond orders larger than 0.100000
B(  0-Al,  1-H ) :   0.9329 B(  0-Al,  2-H ) :   0.9329 B(  0-Al,  3-H ) :   0.9330

Dispersion correction           -0.001242131
FINAL SINGLE POINT ENERGY      -244.226277171535

DIPOLE MOMENT
-------------
                                X             Y             Z
Electronic contribution:      0.00003       0.00000      -0.00000
Nuclear contribution   :     -0.00001       0.00000       0.00000
                        -----------------------------------------
Total Dipole Moment    :      0.00002       0.00000      -0.00000
                        -----------------------------------------
Magnitude (a.u.)       :      0.00002
Magnitude (Debye)      :      0.00005

Rotational constants in cm-1:     4.350150     4.350130     2.175070
Rotational constants in MHz : 130414.210579 130413.615544 65206.956531

                             ****ORCA TERMINATED NORMALLY****
TOTAL RUN TIME: 0 days 0 hours 0 minutes 3 seconds 390 msec
