                         Program Version 4.2.0 -  RELEASE  -
|  1> #
|  2> # 177_si TPSSh-D3BJ/Def2-TZVPPD
|  3> #
|  4> ! tpssh d3bj def2-tzvppd def2/jk grid4 nofinalgrid
|  5>
|  6> *xyz 0 1
|  7> Si         0.00000        0.00000        0.00000
|  8> H         -0.86552        0.86552        0.86552
|  9> H          0.86552       -0.86552        0.86552
| 10> H         -0.86552       -0.86552       -0.86552
| 11> H          0.86552        0.86552       -0.86552
| 12> *
| 13>
| 14> %maxcore 5000
| 15>
| 16> %pal
| 17> nprocs = 24
| 18> end
| 19>
| 20>
| 21>                          ****END OF INPUT****

CARTESIAN COORDINATES (ANGSTROEM)
---------------------------------
  Si     0.000000    0.000000    0.000000
  H     -0.865520    0.865520    0.865520
  H      0.865520   -0.865520    0.865520
  H     -0.865520   -0.865520   -0.865520
  H      0.865520    0.865520   -0.865520

 Total Charge           Charge          ....    0
 Multiplicity           Mult            ....    1
 Number of Electrons    NEL             ....   18
 Basis Dimension        Dim             ....  116

ORBITAL ENERGIES
----------------

  NO   OCC          E(Eh)            E(eV)
   0   2.0000     -65.983084     -1795.4910
   1   2.0000      -5.215932      -141.9327
   2   2.0000      -3.562593       -96.9431
   3   2.0000      -3.562593       -96.9431
   4   2.0000      -3.562593       -96.9431
   5   2.0000      -0.528169       -14.3722
   6   2.0000      -0.340264        -9.2591
   7   2.0000      -0.340264        -9.2591
   8   2.0000      -0.340264        -9.2591
   9   0.0000       0.007289         0.1984
  10   0.0000       0.020553         0.5593
  11   0.0000       0.020553         0.5593
  12   0.0000       0.020553         0.5593
  13   0.0000       0.069726         1.8974

MULLIKEN ATOMIC CHARGES
-----------------------
   0 Si:    0.255732
   1 H :   -0.063934
   2 H :   -0.063932
   3 H :   -0.063933
   4 H :   -0.063933
Sum of atomic charges:   -0.0000000

LOEWDIN ATOMIC CHARGES
----------------------
   0 Si:    0.676498
   1 H :   -0.169125
   2 H :   -0.169125
   3 H :   -0.169125
   4 H :   -0.169125

  Mayer bond orders larger than 0.100000
B(  0-Si,  1-H ) :   0.9679 B(  0-Si,  2-H ) :   0.9679 B(  0-Si,  3-H ) :   0.9679
B(  0-Si,  4-H ) :   0.9679

Dispersion correction           -0.001999993
FINAL SINGLE POINT ENERGY      -291.918019262089

DIPOLE MOMENT
-------------
                                X             Y             Z
Electronic contribution:     -0.00000      -0.00000      -0.00000
Nuclear contribution   :      0.00000       0.00000       0.00000
                        -----------------------------------------
Total Dipole Moment    :     -0.00000      -0.00000      -0.00000
                        -----------------------------------------
Magnitude (a.u.)       :      0.00000
Magnitude (Debye)      :      0.00000

Rotational constants in cm-1:     2.790565     2.790565     2.790565
Rotational constants in MHz : 83659.038574 83659.038574 83659.038574

                             ****ORCA TERMINATED NORMALLY****
TOTAL RUN TIME: 0 days 0 hours 0 minutes 2 seconds 963 msec
