                         Program Version 4.2.0 -  RELEASE  -
|  1> #
|  2> # 178_p TPSSh-D3BJ/Def2-TZVPPD
|  3> #
|  4> ! tpssh d3bj def2-tzvppd def2/jk grid4 nofinalgrid
|  5>
|  6> *xyz 0 1
|  7> P          0.00000        0.00000        0.95949
|  8> P          0.00000        0.00000       -0.95949
|  9> *
| 10>
| 11> %maxcore 5000
| 12>
| 13> %pal
| 14> nprocs = 24
| 15> end
| 16>
| 17>
| 18>                          ****END OF INPUT****

CARTESIAN COORDINATES (ANGSTROEM)
---------------------------------
  P      0.000000    0.000000    0.959490
  P      0.000000    0.000000   -0.959490

 Total Charge           Charge          ....    0
 Multiplicity           Mult            ....    1
 Number of Electrons    NEL             ....   30
 Basis Dimension        Dim             ....   96

ORBITAL ENERGIES
----------------

  NO   OCC          E(Eh)            E(eV)
   0   2.0000     -76.948623     -2093.8785
   1   2.0000     -76.948597     -2093.8778
   2   2.0000      -6.504264      -176.9900
   3   2.0000      -6.503905      -176.9802
   4   2.0000      -4.653445      -126.6267
   5   2.0000      -4.653445      -126.6267
   6   2.0000      -4.653283      -126.6223
   7   2.0000      -4.653283      -126.6223
   8   2.0000      -4.649824      -126.5281
   9   2.0000      -4.647940      -126.4769
  10   2.0000      -0.656311       -17.8591
  11   2.0000      -0.453727       -12.3466
  12   2.0000      -0.284901        -7.7525
  13   2.0000      -0.275814        -7.5053
  14   2.0000      -0.275814        -7.5053
  15   0.0000      -0.114483        -3.1152
  16   0.0000      -0.114483        -3.1152
  17   0.0000       0.021603         0.5878
  18   0.0000       0.028274         0.7694
  19   0.0000       0.083895         2.2829

MULLIKEN ATOMIC CHARGES
-----------------------
   0 P :   -0.000001
   1 P :    0.000001
Sum of atomic charges:   -0.0000000

LOEWDIN ATOMIC CHARGES
----------------------
   0 P :    0.000000
   1 P :   -0.000000

  Mayer bond orders larger than 0.100000
B(  0-P ,  1-P ) :   2.7562

Dispersion correction           -0.001969749
FINAL SINGLE POINT ENERGY      -682.741488266221

DIPOLE MOMENT
-------------
                                X             Y             Z
Electronic contribution:     -0.00000      -0.00000       0.00000
Nuclear contribution   :      0.00000       0.00000       0.00000
                        -----------------------------------------
Total Dipole Moment    :     -0.00000      -0.00000       0.00000
                        -----------------------------------------
Magnitude (a.u.)       :      0.00000
Magnitude (Debye)      :      0.00000

Rotational constants in cm-1:     0.000000     0.295589     0.295589
Rotational constants in MHz :     0.000000  8861.544214  8861.544214

                             ****ORCA TERMINATED NORMALLY****
TOTAL RUN TIME: 0 days 0 hours 0 minutes 3 seconds 361 msec
