                         Program Version 4.2.0 -  RELEASE  -
|  1> #
|  2> # 179_s TPSSh-D3BJ/Def2-TZVPPD
|  3> #
|  4> ! tpssh d3bj def2-tzvppd def2/jk grid4 nofinalgrid
|  5>
|  6> *xyz 0 3
|  7> S          0.00000        0.00000        0.96937
|  8> S          0.00000        0.00000       -0.96937
|  9> *
| 10>
| 11> %maxcore 5000
| 12>
| 13> %pal
| 14> nprocs = 24
| 15> end
| 16>
| 17>
| 18>                          ****END OF INPUT****

CARTESIAN COORDINATES (ANGSTROEM)
---------------------------------
  S      0.000000    0.000000    0.969370
  S      0.000000    0.000000   -0.969370

 Total Charge           Charge          ....    0
 Multiplicity           Mult            ....    3
 Number of Electrons    NEL             ....   32
 Basis Dimension        Dim             ....  102

ORBITAL ENERGIES
----------------
                 SPIN UP ORBITALS
  NO   OCC          E(Eh)            E(eV)
   0   1.0000     -88.772650     -2415.6266
   1   1.0000     -88.772639     -2415.6263
   2   1.0000      -7.915747      -215.3984
   3   1.0000      -7.915644      -215.3956
   4   1.0000      -5.863790      -159.5618
   5   1.0000      -5.863790      -159.5618
   6   1.0000      -5.863751      -159.5608
   7   1.0000      -5.863751      -159.5608
   8   1.0000      -5.863651      -159.5581
   9   1.0000      -5.863058      -159.5419
  10   1.0000      -0.807769       -21.9805
  11   1.0000      -0.622044       -16.9267
  12   1.0000      -0.387058       -10.5324
  13   1.0000      -0.362986        -9.8774
  14   1.0000      -0.362986        -9.8774
  15   1.0000      -0.242281        -6.5928
  16   1.0000      -0.242281        -6.5928
  17   0.0000      -0.040610        -1.1051
  18   0.0000       0.022821         0.6210
  19   0.0000       0.034979         0.9518
  20   0.0000       0.034979         0.9518
  21   0.0000       0.037033         1.0077

                 SPIN DOWN ORBITALS
  NO   OCC          E(Eh)            E(eV)
   0   1.0000     -88.766203     -2415.4512
   1   1.0000     -88.766193     -2415.4509
   2   1.0000      -7.910271      -215.2494
   3   1.0000      -7.910151      -215.2462
   4   1.0000      -5.860591      -159.4748
   5   1.0000      -5.859990      -159.4584
   6   1.0000      -5.852591      -159.2571
   7   1.0000      -5.852591      -159.2571
   8   1.0000      -5.852547      -159.2559
   9   1.0000      -5.852547      -159.2559
  10   1.0000      -0.780208       -21.2305
  11   1.0000      -0.566938       -15.4272
  12   1.0000      -0.366278        -9.9669
  13   1.0000      -0.315888        -8.5957
  14   1.0000      -0.315888        -8.5957
  15   0.0000      -0.155385        -4.2282
  16   0.0000      -0.155385        -4.2282
  17   0.0000      -0.024293        -0.6611
  18   0.0000       0.030902         0.8409
  19   0.0000       0.040964         1.1147

MULLIKEN ATOMIC CHARGES AND SPIN POPULATIONS
--------------------------------------------
   0 S :   -0.000000    0.999999
   1 S :    0.000000    1.000001
Sum of atomic charges         :   -0.0000000

LOEWDIN ATOMIC CHARGES AND SPIN POPULATIONS
-------------------------------------------
   0 S :   -0.000000    1.000000
   1 S :    0.000000    1.000000

  Mayer bond orders larger than 0.100000
B(  0-S ,  1-S ) :   1.9135

Dispersion correction           -0.001583642
FINAL SINGLE POINT ENERGY      -796.431730452715

DIPOLE MOMENT
-------------
                                X             Y             Z
Electronic contribution:     -0.00000       0.00000       0.00000
Nuclear contribution   :      0.00000       0.00000       0.00000
                        -----------------------------------------
Total Dipole Moment    :     -0.00000       0.00000       0.00000
                        -----------------------------------------
Magnitude (a.u.)       :      0.00000
Magnitude (Debye)      :      0.00000

Rotational constants in cm-1:     0.000000     0.279785     0.279785
Rotational constants in MHz :     0.000000  8387.739618  8387.739618

                             ****ORCA TERMINATED NORMALLY****
TOTAL RUN TIME: 0 days 0 hours 0 minutes 2 seconds 985 msec
