                         Program Version 4.2.0 -  RELEASE  -
|  1> #
|  2> # 180_cl TPSSh-D3BJ/Def2-TZVPPD
|  3> #
|  4> ! tpssh d3bj def2-tzvppd def2/jk grid4 nofinalgrid
|  5>
|  6> *xyz 0 1
|  7> Cl         0.00000        0.00000        1.02399
|  8> Cl         0.00000        0.00000       -1.02399
|  9> *
| 10>
| 11> %maxcore 5000
| 12>
| 13> %pal
| 14> nprocs = 24
| 15> end
| 16>
| 17>
| 18>                          ****END OF INPUT****

CARTESIAN COORDINATES (ANGSTROEM)
---------------------------------
  Cl     0.000000    0.000000    1.023990
  Cl     0.000000    0.000000   -1.023990

 Total Charge           Charge          ....    0
 Multiplicity           Mult            ....    1
 Number of Electrons    NEL             ....   34
 Basis Dimension        Dim             ....  102

ORBITAL ENERGIES
----------------

  NO   OCC          E(Eh)            E(eV)
   0   2.0000    -101.434471     -2760.1723
   1   2.0000    -101.434463     -2760.1721
   2   2.0000      -9.432159      -256.6621
   3   2.0000      -9.432147      -256.6618
   4   2.0000      -7.184142      -195.4904
   5   2.0000      -7.184048      -195.4879
   6   2.0000      -7.168937      -195.0767
   7   2.0000      -7.168937      -195.0767
   8   2.0000      -7.168936      -195.0767
   9   2.0000      -7.168936      -195.0767
  10   2.0000      -0.899972       -24.4895
  11   2.0000      -0.755830       -20.5672
  12   2.0000      -0.457754       -12.4561
  13   2.0000      -0.389859       -10.6086
  14   2.0000      -0.389859       -10.6086
  15   2.0000      -0.298559        -8.1242
  16   2.0000      -0.298559        -8.1242
  17   0.0000      -0.154135        -4.1942
  18   0.0000       0.034420         0.9366
  19   0.0000       0.039089         1.0637
  20   0.0000       0.048707         1.3254
  21   0.0000       0.048708         1.3254

MULLIKEN ATOMIC CHARGES
-----------------------
   0 Cl:   -0.000000
   1 Cl:    0.000000
Sum of atomic charges:   -0.0000000

LOEWDIN ATOMIC CHARGES
----------------------
   0 Cl:   -0.000000
   1 Cl:    0.000000

  Mayer bond orders larger than 0.100000
B(  0-Cl,  1-Cl) :   1.0173

Dispersion correction           -0.001239337
FINAL SINGLE POINT ENERGY      -920.424506500718

DIPOLE MOMENT
-------------
                                X             Y             Z
Electronic contribution:     -0.00000      -0.00000      -0.00000
Nuclear contribution   :      0.00000       0.00000       0.00000
                        -----------------------------------------
Total Dipole Moment    :     -0.00000      -0.00000      -0.00000
                        -----------------------------------------
Magnitude (a.u.)       :      0.00000
Magnitude (Debye)      :      0.00000

Rotational constants in cm-1:     0.000000     0.226737     0.226737
Rotational constants in MHz :     0.000000  6797.405627  6797.405627

                             ****ORCA TERMINATED NORMALLY****
TOTAL RUN TIME: 0 days 0 hours 0 minutes 3 seconds 190 msec
