                         Program Version 4.2.0 -  RELEASE  -
|  1> #
|  2> # 048 wB97X-V/Def2-TZVPPD
|  3> #
|  4> ! wb97x-v def2-tzvppd def2/jk grid4 nofinalgrid
|  5>
|  6> *xyz 0 1
|  7> O          0.75742       -0.00510        0.75514
|  8> H         -1.01794        1.02757        1.02184
|  9> H         -0.96093       -0.60735        1.74144
| 10> C         -0.64191        0.00049        0.87802
| 11> H          0.38038        0.00572       -2.17342
| 12> H          0.12624       -0.00672       -2.88156
| 13> Al         2.47079       -0.00043        0.68709
| 14> H         -1.11404       -0.41418       -0.02857
| 15> *
| 16>
| 17> %maxcore 5000
| 18>
| 19> %pal
| 20> nprocs = 24
| 21> end
| 22>
| 23>
| 24>                          ****END OF INPUT****

CARTESIAN COORDINATES (ANGSTROEM)
---------------------------------
  O      0.757420   -0.005100    0.755140
  H     -1.017940    1.027570    1.021840
  H     -0.960930   -0.607350    1.741440
  C     -0.641910    0.000490    0.878020
  H      0.380380    0.005720   -2.173420
  H      0.126240   -0.006720   -2.881560
  Al     2.470790   -0.000430    0.687090
  H     -1.114040   -0.414180   -0.028570

 Total Charge           Charge          ....    0
 Multiplicity           Mult            ....    1
 Number of Electrons    NEL             ....   32
 Basis Dimension        Dim             ....  210

ORBITAL ENERGIES
----------------

  NO   OCC          E(Eh)            E(eV)
   0   2.0000     -56.058093     -1525.4183
   1   2.0000     -19.198797      -522.4258
   2   2.0000     -10.317941      -280.7654
   3   2.0000      -4.239864      -115.3726
   4   2.0000      -2.784861       -75.7799
   5   2.0000      -2.784850       -75.7796
   6   2.0000      -2.780370       -75.6577
   7   2.0000      -1.113484       -30.2994
   8   2.0000      -0.801668       -21.8145
   9   2.0000      -0.589180       -16.0324
  10   2.0000      -0.559506       -15.2249
  11   2.0000      -0.554113       -15.0782
  12   2.0000      -0.535721       -14.5777
  13   2.0000      -0.394518       -10.7354
  14   2.0000      -0.394186       -10.7263
  15   2.0000      -0.326298        -8.8790
  16   0.0000       0.029621         0.8060
  17   0.0000       0.029770         0.8101
  18   0.0000       0.060481         1.6458
  19   0.0000       0.069325         1.8864
  20   0.0000       0.081669         2.2223

MULLIKEN ATOMIC CHARGES
-----------------------
   0 O :    0.074781
   1 H :    0.055325
   2 H :    0.039218
   3 C :    0.020261
   4 H :   -0.096752
   5 H :    0.079795
   6 Al:   -0.211241
   7 H :    0.038613
Sum of atomic charges:    0.0000000

LOEWDIN ATOMIC CHARGES
----------------------
   0 O :   -0.524362
   1 H :   -0.001222
   2 H :   -0.002720
   3 C :   -0.012365
   4 H :    0.007913
   5 H :    0.037292
   6 Al:    0.509194
   7 H :   -0.013731

  Mayer bond orders larger than 0.100000
B(  0-O ,  3-C ) :   0.7723 B(  0-O ,  6-Al) :   0.2597 B(  1-H ,  3-C ) :   1.0193
B(  2-H ,  3-C ) :   1.0290 B(  3-C ,  7-H ) :   1.0024 B(  4-H ,  5-H ) :   0.9996

FINAL SINGLE POINT ENERGY      -358.737083750335

DIPOLE MOMENT
-------------
                                X             Y             Z
Electronic contribution:      8.64882      -0.00573       5.31779
Nuclear contribution   :     -8.98536       0.01025      -5.24566
                        -----------------------------------------
Total Dipole Moment    :     -0.33654       0.00452       0.07213
                        -----------------------------------------
Magnitude (a.u.)       :      0.34421
Magnitude (Debye)      :      0.87491

Rotational constants in cm-1:     0.678137     0.159402     0.132325
Rotational constants in MHz : 20330.024381  4778.738837  3967.007595

                             ****ORCA TERMINATED NORMALLY****
TOTAL RUN TIME: 0 days 0 hours 0 minutes 8 seconds 708 msec
