                         Program Version 4.2.0 -  RELEASE  -
|  1> #
|  2> # 050 wB97X-V/Def2-TZVPPD
|  3> #
|  4> ! wb97x-v def2-tzvppd def2/jk grid4 nofinalgrid
|  5>
|  6> *xyz 0 1
|  7> H          0.20940       -0.52586       -2.49943
|  8> Cl        -0.00687       -1.57667        0.66924
|  9> H         -0.20240       -1.10325       -2.75186
| 10> H         -1.52841        1.31136        0.17964
| 11> H          1.18008        1.27520       -0.42375
| 12> H          0.01798       -1.62546        1.96923
| 13> Al        -0.00655        1.11839        0.64244
| 14> H          0.33679        1.12629        2.21448
| 15> *
| 16>
| 17> %maxcore 5000
| 18>
| 19> %pal
| 20> nprocs = 24
| 21> end
| 22>
| 23>
| 24>                          ****END OF INPUT****

CARTESIAN COORDINATES (ANGSTROEM)
---------------------------------
  H      0.209400   -0.525860   -2.499430
  Cl    -0.006870   -1.576670    0.669240
  H     -0.202400   -1.103250   -2.751860
  H     -1.528410    1.311360    0.179640
  H      1.180080    1.275200   -0.423750
  H      0.017980   -1.625460    1.969230
  Al    -0.006550    1.118390    0.642440
  H      0.336790    1.126290    2.214480

 Total Charge           Charge          ....    0
 Multiplicity           Mult            ....    1
 Number of Electrons    NEL             ....   36
 Basis Dimension        Dim             ....  201

ORBITAL ENERGIES
----------------

  NO   OCC          E(Eh)            E(eV)
   0   2.0000    -101.582275     -2764.1942
   1   2.0000     -56.047748     -1525.1368
   2   2.0000      -9.622163      -261.8324
   3   2.0000      -7.376488      -200.7244
   4   2.0000      -7.368970      -200.5199
   5   2.0000      -7.367596      -200.4825
   6   2.0000      -4.234348      -115.2225
   7   2.0000      -2.783909       -75.7540
   8   2.0000      -2.775353       -75.5212
   9   2.0000      -2.775138       -75.5154
  10   2.0000      -1.025446       -27.9038
  11   2.0000      -0.627604       -17.0780
  12   2.0000      -0.553092       -15.0504
  13   2.0000      -0.542894       -14.7729
  14   2.0000      -0.491338       -13.3700
  15   2.0000      -0.473383       -12.8814
  16   2.0000      -0.393926       -10.7193
  17   2.0000      -0.390306       -10.6208
  18   0.0000       0.025075         0.6823
  19   0.0000       0.043588         1.1861
  20   0.0000       0.064764         1.7623
  21   0.0000       0.075154         2.0451
  22   0.0000       0.079793         2.1713

MULLIKEN ATOMIC CHARGES
-----------------------
   0 H :   -0.038747
   1 Cl:   -0.174986
   2 H :    0.034630
   3 H :   -0.199677
   4 H :   -0.208670
   5 H :    0.268201
   6 Al:    0.546423
   7 H :   -0.227175
Sum of atomic charges:    0.0000000

LOEWDIN ATOMIC CHARGES
----------------------
   0 H :    0.006878
   1 Cl:    0.522986
   2 H :    0.029108
   3 H :   -0.186950
   4 H :   -0.188759
   5 H :   -0.331399
   6 Al:    0.333091
   7 H :   -0.184957

  Mayer bond orders larger than 0.100000
B(  0-H ,  2-H ) :   0.9950 B(  1-Cl,  5-H ) :   0.9481 B(  1-Cl,  6-Al) :   0.2073
B(  3-H ,  6-Al) :   0.9391 B(  4-H ,  6-Al) :   0.9294 B(  6-Al,  7-H ) :   0.9042

FINAL SINGLE POINT ENERGY      -706.096321279328

DIPOLE MOMENT
-------------
                                X             Y             Z
Electronic contribution:     -0.04040      -3.63063       5.10527
Nuclear contribution   :      0.04784       2.78212      -4.67262
                        -----------------------------------------
Total Dipole Moment    :      0.00744      -0.84851       0.43265
                        -----------------------------------------
Magnitude (a.u.)       :      0.95247
Magnitude (Debye)      :      2.42100

Rotational constants in cm-1:     0.545363     0.134491     0.113645
Rotational constants in MHz : 16349.582447  4031.950699  3406.980673

                             ****ORCA TERMINATED NORMALLY****
TOTAL RUN TIME: 0 days 0 hours 0 minutes 6 seconds 260 msec
