                         Program Version 4.2.0 -  RELEASE  -
|  1> #
|  2> # 070 wB97X-V/Def2-TZVPPD
|  3> #
|  4> ! wb97x-v def2-tzvppd def2/jk grid4 nofinalgrid
|  5>
|  6> *xyz 0 1
|  7> H          0.08530       -0.02655        1.60712
|  8> H          0.90656       -0.78582       -1.39861
|  9> Be        -0.05035        0.92778       -0.02639
| 10> H          0.07901        0.71807        1.80526
| 11> F         -0.04624       -1.68577        0.17900
| 12> C         -0.00461       -0.62157       -0.79461
| 13> H         -0.11623        2.26790        0.10895
| 14> H         -0.85344       -0.79405       -1.48072
| 15> *
| 16>
| 17> %maxcore 5000
| 18>
| 19> %pal
| 20> nprocs = 24
| 21> end
| 22>
| 23>
| 24>                          ****END OF INPUT****

CARTESIAN COORDINATES (ANGSTROEM)
---------------------------------
  H      0.085300   -0.026550    1.607120
  H      0.906560   -0.785820   -1.398610
  Be    -0.050350    0.927780   -0.026390
  H      0.079010    0.718070    1.805260
  F     -0.046240   -1.685770    0.179000
  C     -0.004610   -0.621570   -0.794610
  H     -0.116230    2.267900    0.108950
  H     -0.853440   -0.794050   -1.480720

 Total Charge           Charge          ....    0
 Multiplicity           Mult            ....    1
 Number of Electrons    NEL             ....   24
 Basis Dimension        Dim             ....  184

ORBITAL ENERGIES
----------------

  NO   OCC          E(Eh)            E(eV)
   0   2.0000     -24.732865      -673.0155
   1   2.0000     -10.314176      -280.6630
   2   2.0000      -4.131758      -112.4309
   3   2.0000      -1.295109       -35.2417
   4   2.0000      -0.797572       -21.7030
   5   2.0000      -0.639201       -17.3935
   6   2.0000      -0.577089       -15.7034
   7   2.0000      -0.575339       -15.6558
   8   2.0000      -0.534747       -14.5512
   9   2.0000      -0.448681       -12.2092
  10   2.0000      -0.429806       -11.6956
  11   2.0000      -0.391160       -10.6440
  12   0.0000       0.029925         0.8143
  13   0.0000       0.048258         1.3132
  14   0.0000       0.055809         1.5186
  15   0.0000       0.061865         1.6834
  16   0.0000       0.088306         2.4029

MULLIKEN ATOMIC CHARGES
-----------------------
   0 H :    0.091363
   1 H :   -0.059037
   2 Be:    0.104269
   3 H :   -0.043423
   4 F :   -0.288052
   5 C :    0.331074
   6 H :   -0.077653
   7 H :   -0.058541
Sum of atomic charges:    0.0000000

LOEWDIN ATOMIC CHARGES
----------------------
   0 H :    0.080822
   1 H :   -0.048870
   2 Be:    0.358564
   3 H :    0.075127
   4 F :   -0.183681
   5 C :   -0.126370
   6 H :   -0.105958
   7 H :   -0.049634

  Mayer bond orders larger than 0.100000
B(  0-H ,  2-Be) :   0.1358 B(  0-H ,  3-H ) :   0.9144 B(  1-H ,  5-C ) :   1.0211
B(  2-Be,  3-H ) :   0.1405 B(  2-Be,  5-C ) :   1.0379 B(  2-Be,  6-H ) :   0.8846
B(  4-F ,  5-C ) :   0.7994 B(  5-C ,  7-H ) :   1.0239

FINAL SINGLE POINT ENERGY      -155.648788970374

DIPOLE MOMENT
-------------
                                X             Y             Z
Electronic contribution:     -0.19661      -3.57006      -0.73994
Nuclear contribution   :      0.26588       3.83479       0.81982
                        -----------------------------------------
Total Dipole Moment    :      0.06927       0.26473       0.07988
                        -----------------------------------------
Magnitude (a.u.)       :      0.28506
Magnitude (Debye)      :      0.72457

Rotational constants in cm-1:     0.879452     0.304630     0.236523
Rotational constants in MHz : 26365.310047  9132.583609  7090.795310

                             ****ORCA TERMINATED NORMALLY****
TOTAL RUN TIME: 0 days 0 hours 0 minutes 6 seconds 837 msec
