                         Program Version 4.2.0 -  RELEASE  -
|  1> #
|  2> # 076 wB97X-V/Def2-TZVPPD
|  3> #
|  4> ! wb97x-v def2-tzvppd def2/jk grid4 nofinalgrid
|  5>
|  6> *xyz 0 1
|  7> H         -0.10732        2.90062       -0.02721
|  8> H          0.35760       -1.90152        0.97790
|  9> Li        -0.27775        0.78724       -0.00029
| 10> H          0.84572       -0.46906       -0.34423
| 11> H         -1.10236       -0.68915        0.32212
| 12> B         -0.04346       -1.30148        0.00006
| 13> H          0.61490        2.68175        0.02928
| 14> H         -0.28734       -2.00840       -0.95762
| 15> *
| 16>
| 17> %maxcore 5000
| 18>
| 19> %pal
| 20> nprocs = 24
| 21> end
| 22>
| 23>
| 24>                          ****END OF INPUT****

CARTESIAN COORDINATES (ANGSTROEM)
---------------------------------
  H     -0.107320    2.900620   -0.027210
  H      0.357600   -1.901520    0.977900
  Li    -0.277750    0.787240   -0.000290
  H      0.845720   -0.469060   -0.344230
  H     -1.102360   -0.689150    0.322120
  B     -0.043460   -1.301480    0.000060
  H      0.614900    2.681750    0.029280
  H     -0.287340   -2.008400   -0.957620

 Total Charge           Charge          ....    0
 Multiplicity           Mult            ....    1
 Number of Electrons    NEL             ....   14
 Basis Dimension        Dim             ....  161

ORBITAL ENERGIES
----------------

  NO   OCC          E(Eh)            E(eV)
   0   2.0000      -6.753564      -183.7738
   1   2.0000      -2.133432       -58.0536
   2   2.0000      -0.640971       -17.4417
   3   2.0000      -0.610289       -16.6068
   4   2.0000      -0.401555       -10.9269
   5   2.0000      -0.387054       -10.5323
   6   2.0000      -0.373770       -10.1708
   7   0.0000       0.009275         0.2524
   8   0.0000       0.025779         0.7015
   9   0.0000       0.029307         0.7975
  10   0.0000       0.040082         1.0907
  11   0.0000       0.072935         1.9847

MULLIKEN ATOMIC CHARGES
-----------------------
   0 H :    0.036071
   1 H :   -0.037242
   2 Li:    0.702901
   3 H :   -0.199365
   4 H :   -0.160076
   5 B :   -0.326965
   6 H :    0.021689
   7 H :   -0.037014
Sum of atomic charges:    0.0000000

LOEWDIN ATOMIC CHARGES
----------------------
   0 H :    0.099790
   1 H :   -0.069628
   2 Li:    0.331238
   3 H :   -0.080322
   4 H :   -0.073185
   5 B :   -0.235156
   6 H :    0.096990
   7 H :   -0.069727

  Mayer bond orders larger than 0.100000
B(  0-H ,  6-H ) :   0.9423 B(  1-H ,  5-B ) :   0.9772 B(  2-Li,  3-H ) :   0.1169
B(  2-Li,  4-H ) :   0.1217 B(  2-Li,  5-B ) :   0.1301 B(  3-H ,  5-B ) :   0.8573
B(  4-H ,  5-B ) :   0.8600 B(  5-B ,  7-H ) :   0.9769

FINAL SINGLE POINT ENERGY       -35.950805973170

DIPOLE MOMENT
-------------
                                X             Y             Z
Electronic contribution:     -1.17656       0.80079      -0.00111
Nuclear contribution   :      0.92718       2.12684       0.00062
                        -----------------------------------------
Total Dipole Moment    :     -0.24938       2.92762      -0.00049
                        -----------------------------------------
Magnitude (a.u.)       :      2.93822
Magnitude (Debye)      :      7.46837

Rotational constants in cm-1:     3.344864     0.365518     0.359194
Rotational constants in MHz : 100276.510227 10957.945080 10768.366475

                             ****ORCA TERMINATED NORMALLY****
TOTAL RUN TIME: 0 days 0 hours 0 minutes 4 seconds 667 msec
