                         Program Version 4.2.0 -  RELEASE  -
|  1> #
|  2> # 088 wB97X-V/Def2-TZVPPD
|  3> #
|  4> ! wb97x-v def2-tzvppd def2/jk grid4 nofinalgrid
|  5>
|  6> *xyz 0 1
|  7> C          0.81376        0.10372        0.34640
|  8> H          0.87654        0.17194        1.44377
|  9> H          1.67271        0.57624       -0.15360
| 10> N          0.56076       -1.37061        0.00951
| 11> C         -0.53618        0.54868       -0.29052
| 12> S         -2.13839       -0.48145        0.15104
| 13> H         -0.69523        1.33853       -1.02043
| 14> C         -0.55397       -0.88705       -0.48618
| 15> *
| 16>
| 17> %maxcore 5000
| 18>
| 19> %pal
| 20> nprocs = 24
| 21> end
| 22>
| 23>
| 24>                          ****END OF INPUT****

CARTESIAN COORDINATES (ANGSTROEM)
---------------------------------
  C      0.813760    0.103720    0.346400
  H      0.876540    0.171940    1.443770
  H      1.672710    0.576240   -0.153600
  N      0.560760   -1.370610    0.009510
  C     -0.536180    0.548680   -0.290520
  S     -2.138390   -0.481450    0.151040
  H     -0.695230    1.338530   -1.020430
  C     -0.553970   -0.887050   -0.486180

 Total Charge           Charge          ....    0
 Multiplicity           Mult            ....    1
 Number of Electrons    NEL             ....   44
 Basis Dimension        Dim             ....  250

ORBITAL ENERGIES
----------------

  NO   OCC          E(Eh)            E(eV)
   0   2.0000     -88.909216     -2419.3428
   1   2.0000     -14.427246      -392.5853
   2   2.0000     -10.379841      -282.4498
   3   2.0000     -10.351523      -281.6793
   4   2.0000     -10.340291      -281.3736
   5   2.0000      -8.084300      -219.9850
   6   2.0000      -6.040193      -164.3620
   7   2.0000      -6.038795      -164.3240
   8   2.0000      -6.029711      -164.0768
   9   2.0000      -1.135188       -30.8900
  10   2.0000      -0.954757       -25.9802
  11   2.0000      -0.847570       -23.0636
  12   2.0000      -0.750370       -20.4186
  13   2.0000      -0.650582       -17.7032
  14   2.0000      -0.603493       -16.4219
  15   2.0000      -0.578274       -15.7356
  16   2.0000      -0.564262       -15.3543
  17   2.0000      -0.479115       -13.0374
  18   2.0000      -0.449633       -12.2351
  19   2.0000      -0.424653       -11.5554
  20   2.0000      -0.360795        -9.8177
  21   2.0000      -0.341431        -9.2908
  22   0.0000      -0.015781        -0.4294
  23   0.0000       0.034709         0.9445
  24   0.0000       0.054533         1.4839
  25   0.0000       0.065265         1.7760
  26   0.0000       0.070109         1.9078

MULLIKEN ATOMIC CHARGES
-----------------------
   0 C :    0.288564
   1 H :   -0.003845
   2 H :    0.022048
   3 N :   -0.465727
   4 C :    0.011399
   5 S :   -0.224567
   6 H :    0.081882
   7 C :    0.290246
Sum of atomic charges:   -0.0000000

LOEWDIN ATOMIC CHARGES
----------------------
   0 C :   -0.037475
   1 H :    0.024442
   2 H :    0.020087
   3 N :    0.080264
   4 C :   -0.265263
   5 S :    0.853934
   6 H :   -0.017106
   7 C :   -0.658884

  Mayer bond orders larger than 0.100000
B(  0-C ,  1-H ) :   0.9796 B(  0-C ,  2-H ) :   0.9916 B(  0-C ,  3-N ) :   0.7634
B(  0-C ,  4-C ) :   0.8939 B(  0-C ,  5-S ) :   0.1200 B(  0-C ,  7-C ) :   0.2089
B(  3-N ,  4-C ) :   0.1074 B(  3-N ,  7-C ) :   1.5122 B(  4-C ,  5-S ) :   0.8541
B(  4-C ,  6-H ) :   1.0211 B(  4-C ,  7-C ) :   0.9197 B(  5-S ,  7-C ) :   1.0314

FINAL SINGLE POINT ENERGY      -568.853015137265

DIPOLE MOMENT
-------------
                                X             Y             Z
Electronic contribution:     -3.82929      -2.07747      -0.38524
Nuclear contribution   :      3.84230       3.12311       0.24615
                        -----------------------------------------
Total Dipole Moment    :      0.01301       1.04565      -0.13909
                        -----------------------------------------
Magnitude (a.u.)       :      1.05494
Magnitude (Debye)      :      2.68144

Rotational constants in cm-1:     0.386346     0.125803     0.105869
Rotational constants in MHz : 11582.371237  3771.469962  3173.859054

                             ****ORCA TERMINATED NORMALLY****
TOTAL RUN TIME: 0 days 0 hours 0 minutes 18 seconds 674 msec
