                         Program Version 4.2.0 -  RELEASE  -
|  1> #
|  2> # 096 wB97X-V/Def2-TZVPPD
|  3> #
|  4> ! wb97x-v def2-tzvppd def2/jk grid4 nofinalgrid
|  5>
|  6> *xyz 0 1
|  7> H          0.74842        1.26851        0.59882
|  8> C         -0.16355        0.74665        0.30940
|  9> H          0.74849       -1.26857        0.59856
| 10> C         -0.16356       -0.74663        0.30935
| 11> H          1.21141        0.00004       -1.60315
| 12> H         -1.08115        1.25625        0.60788
| 13> P         -0.21890        0.00004       -1.42860
| 14> H         -1.08115       -1.25629        0.60773
| 15> *
| 16>
| 17> %maxcore 5000
| 18>
| 19> %pal
| 20> nprocs = 24
| 21> end
| 22>
| 23>
| 24>                          ****END OF INPUT****

CARTESIAN COORDINATES (ANGSTROEM)
---------------------------------
  H      0.748420    1.268510    0.598820
  C     -0.163550    0.746650    0.309400
  H      0.748490   -1.268570    0.598560
  C     -0.163560   -0.746630    0.309350
  H      1.211410    0.000040   -1.603150
  H     -1.081150    1.256250    0.607880
  P     -0.218900    0.000040   -1.428600
  H     -1.081150   -1.256290    0.607730

 Total Charge           Charge          ....    0
 Multiplicity           Mult            ....    1
 Number of Electrons    NEL             ....   32
 Basis Dimension        Dim             ....  207

ORBITAL ENERGIES
----------------

  NO   OCC          E(Eh)            E(eV)
   0   2.0000     -77.069346     -2097.1635
   1   2.0000     -10.292737      -280.0796
   2   2.0000     -10.292485      -280.0727
   3   2.0000      -6.650065      -180.9575
   4   2.0000      -4.804520      -130.7376
   5   2.0000      -4.801446      -130.6540
   6   2.0000      -4.799936      -130.6129
   7   2.0000      -0.946783       -25.7633
   8   2.0000      -0.730738       -19.8844
   9   2.0000      -0.693592       -18.8736
  10   2.0000      -0.596868       -16.2416
  11   2.0000      -0.543209       -14.7815
  12   2.0000      -0.480630       -13.0786
  13   2.0000      -0.436113       -11.8672
  14   2.0000      -0.365859        -9.9555
  15   2.0000      -0.364725        -9.9247
  16   0.0000       0.062617         1.7039
  17   0.0000       0.064400         1.7524
  18   0.0000       0.082391         2.2420
  19   0.0000       0.102197         2.7809
  20   0.0000       0.112329         3.0566

MULLIKEN ATOMIC CHARGES
-----------------------
   0 H :    0.070241
   1 C :   -0.062016
   2 H :    0.070229
   3 C :   -0.061989
   4 H :    0.002067
   5 H :    0.057915
   6 P :   -0.134351
   7 H :    0.057903
Sum of atomic charges:    0.0000000

LOEWDIN ATOMIC CHARGES
----------------------
   0 H :   -0.040818
   1 C :   -0.261378
   2 H :   -0.040785
   3 C :   -0.261406
   4 H :   -0.170931
   5 H :   -0.046403
   6 P :    0.868136
   7 H :   -0.046415

  Mayer bond orders larger than 0.100000
B(  0-H ,  1-C ) :   1.0103 B(  1-C ,  3-C ) :   0.8817 B(  1-C ,  5-H ) :   1.0308
B(  1-C ,  6-P ) :   0.8973 B(  2-H ,  3-C ) :   1.0103 B(  3-C ,  6-P ) :   0.8972
B(  3-C ,  7-H ) :   1.0309 B(  4-H ,  6-P ) :   0.9996

FINAL SINGLE POINT ENERGY      -420.504743141531

DIPOLE MOMENT
-------------
                                X             Y             Z
Electronic contribution:     -1.16409       0.00012      -3.87314
Nuclear contribution   :      1.35041      -0.00018       4.31337
                        -----------------------------------------
Total Dipole Moment    :      0.18632      -0.00006       0.44022
                        -----------------------------------------
Magnitude (a.u.)       :      0.47803
Magnitude (Debye)      :      1.21506

Rotational constants in cm-1:     0.669213     0.315945     0.248635
Rotational constants in MHz : 20062.492743  9471.799383  7453.892881

                             ****ORCA TERMINATED NORMALLY****
TOTAL RUN TIME: 0 days 0 hours 0 minutes 8 seconds 508 msec
