                         Program Version 4.2.0 -  RELEASE  -
|  1> #
|  2> # 104 wB97X-V/Def2-TZVPPD
|  3> #
|  4> ! wb97x-v def2-tzvppd def2/jk grid4 nofinalgrid
|  5>
|  6> *xyz 0 2
|  7> C          0.18239        0.81792       -0.17289
|  8> H         -2.32613        0.04031        1.01174
|  9> H          2.24798        0.73105       -0.01871
| 10> C          1.34005        0.10819       -0.12066
| 11> H          0.11379        1.91914       -0.21133
| 12> Si        -1.43329       -0.14152       -0.20061
| 13> H         -1.02937       -1.64029       -0.13873
| 14> Li         0.90457       -1.83481       -0.14881
| 15> *
| 16>
| 17> %maxcore 5000
| 18>
| 19> %pal
| 20> nprocs = 24
| 21> end
| 22>
| 23>
| 24>                          ****END OF INPUT****

CARTESIAN COORDINATES (ANGSTROEM)
---------------------------------
  C      0.182390    0.817920   -0.172890
  H     -2.326130    0.040310    1.011740
  H      2.247980    0.731050   -0.018710
  C      1.340050    0.108190   -0.120660
  H      0.113790    1.919140   -0.211330
  Si    -1.433290   -0.141520   -0.200610
  H     -1.029370   -1.640290   -0.138730
  Li     0.904570   -1.834810   -0.148810

 Total Charge           Charge          ....    0
 Multiplicity           Mult            ....    2
 Number of Electrons    NEL             ....   33
 Basis Dimension        Dim             ....  212

ORBITAL ENERGIES
----------------
                 SPIN UP ORBITALS
  NO   OCC          E(Eh)            E(eV)
   0   1.0000     -66.132087     -1799.5456
   1   1.0000     -10.244994      -278.7805
   2   1.0000     -10.221911      -278.1524
   3   1.0000      -5.381864      -146.4480
   4   1.0000      -3.734811      -101.6294
   5   1.0000      -3.731782      -101.5470
   6   1.0000      -3.728815      -101.4662
   7   1.0000      -2.103050       -57.2269
   8   1.0000      -0.845753       -23.0141
   9   1.0000      -0.663485       -18.0543
  10   1.0000      -0.596296       -16.2260
  11   1.0000      -0.517345       -14.0777
  12   1.0000      -0.449492       -12.2313
  13   1.0000      -0.417549       -11.3621
  14   1.0000      -0.363543        -9.8925
  15   1.0000      -0.309322        -8.4171
  16   1.0000      -0.274167        -7.4605
  17   0.0000       0.004211         0.1146
  18   0.0000       0.034596         0.9414
  19   0.0000       0.039164         1.0657
  20   0.0000       0.053424         1.4537
  21   0.0000       0.083255         2.2655

                 SPIN DOWN ORBITALS
  NO   OCC          E(Eh)            E(eV)
   0   1.0000     -66.129306     -1799.4699
   1   1.0000     -10.244444      -278.7655
   2   1.0000     -10.220203      -278.1059
   3   1.0000      -5.378804      -146.3647
   4   1.0000      -3.729937      -101.4967
   5   1.0000      -3.727167      -101.4214
   6   1.0000      -3.725772      -101.3834
   7   1.0000      -2.103093       -57.2281
   8   1.0000      -0.840799       -22.8793
   9   1.0000      -0.649057       -17.6617
  10   1.0000      -0.587907       -15.9978
  11   1.0000      -0.511158       -13.9093
  12   1.0000      -0.442756       -12.0480
  13   1.0000      -0.410374       -11.1668
  14   1.0000      -0.343676        -9.3519
  15   1.0000      -0.297545        -8.0966
  16   0.0000      -0.017625        -0.4796
  17   0.0000       0.004592         0.1249
  18   0.0000       0.035179         0.9573
  19   0.0000       0.039907         1.0859
  20   0.0000       0.054432         1.4812

MULLIKEN ATOMIC CHARGES AND SPIN POPULATIONS
--------------------------------------------
   0 C :    0.091364    0.036654
   1 H :   -0.086260    0.045300
   2 H :   -0.087436    0.010015
   3 C :   -0.715860    0.125390
   4 H :    0.066648   -0.002823
   5 Si:    0.232776    0.761317
   6 H :   -0.281558    0.025424
   7 Li:    0.780326   -0.001278
Sum of atomic charges         :    0.0000000

LOEWDIN ATOMIC CHARGES AND SPIN POPULATIONS
-------------------------------------------
   0 C :   -0.428991    0.091956
   1 H :   -0.161132    0.078628
   2 H :   -0.122896    0.016615
   3 C :   -0.153065    0.108959
   4 H :   -0.087084   -0.000808
   5 Si:    0.701217    0.631140
   6 H :   -0.142903    0.063973
   7 Li:    0.394854    0.009537

  Mayer bond orders larger than 0.100000
B(  0-C ,  3-C ) :   1.5090 B(  0-C ,  4-H ) :   0.9985 B(  0-C ,  5-Si) :   1.1015
B(  1-H ,  5-Si) :   0.9656 B(  2-H ,  3-C ) :   1.2592 B(  3-C ,  5-Si) :   0.2499
B(  3-C ,  7-Li) :   0.2430 B(  5-Si,  6-H ) :   0.7519 B(  6-H ,  7-Li) :   0.1189

FINAL SINGLE POINT ENERGY      -375.490515928602

DIPOLE MOMENT
-------------
                                X             Y             Z
Electronic contribution:      1.13990      -4.42501      -1.17833
Nuclear contribution   :     -0.90522       2.81558       1.17165
                        -----------------------------------------
Total Dipole Moment    :      0.23468      -1.60944      -0.00669
                        -----------------------------------------
Magnitude (a.u.)       :      1.62647
Magnitude (Debye)      :      4.13416

Rotational constants in cm-1:     0.419182     0.179284     0.128388
Rotational constants in MHz : 12566.751634  5374.809128  3848.967152

                             ****ORCA TERMINATED NORMALLY****
TOTAL RUN TIME: 0 days 0 hours 0 minutes 10 seconds 824 msec
