                         Program Version 4.2.0 -  RELEASE  -
|  1> #
|  2> # 111 wB97X-V/Def2-TZVPPD
|  3> #
|  4> ! wb97x-v def2-tzvppd def2/jk grid4 nofinalgrid
|  5>
|  6> *xyz 0 2
|  7> N          0.85218        0.06581        1.54293
|  8> C         -0.45432        0.04016        1.51127
|  9> H          0.51389       -1.04630       -1.15231
| 10> H         -1.27128       -0.21181        2.19239
| 11> H          0.93075        0.61434       -1.62997
| 12> C          0.02563        0.43731        0.29642
| 13> C          0.17679        0.00817       -1.10677
| 14> H         -0.77364        0.09232       -1.65395
| 15> *
| 16>
| 17> %maxcore 5000
| 18>
| 19> %pal
| 20> nprocs = 24
| 21> end
| 22>
| 23>
| 24>                          ****END OF INPUT****

CARTESIAN COORDINATES (ANGSTROEM)
---------------------------------
  N      0.852180    0.065810    1.542930
  C     -0.454320    0.040160    1.511270
  H      0.513890   -1.046300   -1.152310
  H     -1.271280   -0.211810    2.192390
  H      0.930750    0.614340   -1.629970
  C      0.025630    0.437310    0.296420
  C      0.176790    0.008170   -1.106770
  H     -0.773640    0.092320   -1.653950

 Total Charge           Charge          ....    0
 Multiplicity           Mult            ....    2
 Number of Electrons    NEL             ....   29
 Basis Dimension        Dim             ....  216

ORBITAL ENERGIES
----------------
                 SPIN UP ORBITALS
  NO   OCC          E(Eh)            E(eV)
   0   1.0000     -14.438221      -392.8840
   1   1.0000     -10.348279      -281.5910
   2   1.0000     -10.325231      -280.9638
   3   1.0000     -10.290774      -280.0262
   4   1.0000      -1.130291       -30.7568
   5   1.0000      -0.886462       -24.1219
   6   1.0000      -0.729061       -19.8388
   7   1.0000      -0.702677       -19.1208
   8   1.0000      -0.580643       -15.8001
   9   1.0000      -0.565259       -15.3815
  10   1.0000      -0.539241       -14.6735
  11   1.0000      -0.500320       -13.6144
  12   1.0000      -0.465927       -12.6785
  13   1.0000      -0.391981       -10.6663
  14   1.0000      -0.283992        -7.7278
  15   0.0000       0.044918         1.2223
  16   0.0000       0.066010         1.7962
  17   0.0000       0.081072         2.2061
  18   0.0000       0.101227         2.7545
  19   0.0000       0.122281         3.3274

                 SPIN DOWN ORBITALS
  NO   OCC          E(Eh)            E(eV)
   0   1.0000     -14.430619      -392.6771
   1   1.0000     -10.350405      -281.6488
   2   1.0000     -10.315772      -280.7064
   3   1.0000     -10.290586      -280.0211
   4   1.0000      -1.116866       -30.3915
   5   1.0000      -0.877800       -23.8861
   6   1.0000      -0.724889       -19.7252
   7   1.0000      -0.685379       -18.6501
   8   1.0000      -0.571493       -15.5511
   9   1.0000      -0.541084       -14.7236
  10   1.0000      -0.535096       -14.5607
  11   1.0000      -0.476020       -12.9532
  12   1.0000      -0.453226       -12.3329
  13   1.0000      -0.380979       -10.3670
  14   0.0000       0.032930         0.8961
  15   0.0000       0.058742         1.5985
  16   0.0000       0.072577         1.9749
  17   0.0000       0.083594         2.2747
  18   0.0000       0.105310         2.8656

MULLIKEN ATOMIC CHARGES AND SPIN POPULATIONS
--------------------------------------------
   0 N :   -0.366139    0.399081
   1 C :    0.030370   -0.105567
   2 H :    0.073182    0.048149
   3 H :    0.031660    0.003033
   4 H :    0.038774    0.015498
   5 C :    0.214948    0.629391
   6 C :   -0.079767    0.016349
   7 H :    0.056973   -0.005934
Sum of atomic charges         :   -0.0000000

LOEWDIN ATOMIC CHARGES AND SPIN POPULATIONS
-------------------------------------------
   0 N :    0.138350    0.374994
   1 C :   -0.055530   -0.000481
   2 H :   -0.002129    0.025378
   3 H :    0.008302   -0.012120
   4 H :   -0.013113    0.008710
   5 C :   -0.169522    0.516888
   6 C :    0.107108    0.086875
   7 H :   -0.013466   -0.000245

  Mayer bond orders larger than 0.100000
B(  0-N ,  1-C ) :   1.6564 B(  0-N ,  5-C ) :   0.7552 B(  1-C ,  3-H ) :   1.0066
B(  1-C ,  5-C ) :   1.2451 B(  2-H ,  6-C ) :   0.9346 B(  4-H ,  6-C ) :   1.0029
B(  5-C ,  6-C ) :   0.8963 B(  6-C ,  7-H ) :   1.0037

FINAL SINGLE POINT ENERGY      -171.341519773972

DIPOLE MOMENT
-------------
                                X             Y             Z
Electronic contribution:      0.23786       0.70700       3.66708
Nuclear contribution   :     -1.13576      -0.94785      -4.02666
                        -----------------------------------------
Total Dipole Moment    :     -0.89790      -0.24085      -0.35958
                        -----------------------------------------
Magnitude (a.u.)       :      0.99676
Magnitude (Debye)      :      2.53357

Rotational constants in cm-1:     0.919406     0.218621     0.189338
Rotational constants in MHz : 27563.112958  6554.079895  5676.208610

                             ****ORCA TERMINATED NORMALLY****
TOTAL RUN TIME: 0 days 0 hours 0 minutes 12 seconds 511 msec
