                         Program Version 4.2.0 -  RELEASE  -
|  1> #
|  2> # 123 wB97X-V/Def2-TZVPPD
|  3> #
|  4> ! wb97x-v def2-tzvppd def2/jk grid4 nofinalgrid
|  5>
|  6> *xyz 0 2
|  7> H         -0.05566       -1.00378        1.35004
|  8> H         -0.85108        0.57288        1.07820
|  9> C          0.00090       -0.05557        0.78344
| 10> H         -0.84105       -0.66759       -1.01558
| 11> H          0.91403        0.47335        1.08996
| 12> H          0.01842        1.61333       -1.60506
| 13> H          0.81267       -0.72579       -1.00914
| 14> N          0.00176       -0.20682       -0.67186
| 15> *
| 16>
| 17> %maxcore 5000
| 18>
| 19> %pal
| 20> nprocs = 24
| 21> end
| 22>
| 23>
| 24>                          ****END OF INPUT****

CARTESIAN COORDINATES (ANGSTROEM)
---------------------------------
  H     -0.055660   -1.003780    1.350040
  H     -0.851080    0.572880    1.078200
  C      0.000900   -0.055570    0.783440
  H     -0.841050   -0.667590   -1.015580
  H      0.914030    0.473350    1.089960
  H      0.018420    1.613330   -1.605060
  H      0.812670   -0.725790   -1.009140
  N      0.001760   -0.206820   -0.671860

 Total Charge           Charge          ....    0
 Multiplicity           Mult            ....    2
 Number of Electrons    NEL             ....   19
 Basis Dimension        Dim             ....  176

ORBITAL ENERGIES
----------------
                 SPIN UP ORBITALS
  NO   OCC          E(Eh)            E(eV)
   0   1.0000     -14.415527      -392.2664
   1   1.0000     -10.298909      -280.2476
   2   1.0000      -1.025109       -27.8946
   3   1.0000      -0.799417       -21.7532
   4   1.0000      -0.621776       -16.9194
   5   1.0000      -0.567228       -15.4350
   6   1.0000      -0.532074       -14.4785
   7   1.0000      -0.486391       -13.2354
   8   1.0000      -0.417412       -11.3584
   9   1.0000      -0.299812        -8.1583
  10   0.0000       0.064019         1.7420
  11   0.0000       0.086083         2.3424
  12   0.0000       0.118292         3.2189
  13   0.0000       0.139074         3.7844
  14   0.0000       0.154567         4.2060

                 SPIN DOWN ORBITALS
  NO   OCC          E(Eh)            E(eV)
   0   1.0000     -14.411980      -392.1699
   1   1.0000     -10.298981      -280.2495
   2   1.0000      -1.019816       -27.7506
   3   1.0000      -0.797782       -21.7087
   4   1.0000      -0.619438       -16.8558
   5   1.0000      -0.563472       -15.3328
   6   1.0000      -0.527067       -14.3422
   7   1.0000      -0.485752       -13.2180
   8   1.0000      -0.366073        -9.9614
   9   0.0000       0.034199         0.9306
  10   0.0000       0.073278         1.9940
  11   0.0000       0.092587         2.5194
  12   0.0000       0.120323         3.2742
  13   0.0000       0.141695         3.8557

MULLIKEN ATOMIC CHARGES AND SPIN POPULATIONS
--------------------------------------------
   0 H :    0.084658    0.008958
   1 H :    0.076429   -0.004220
   2 C :   -0.118377   -0.007057
   3 H :    0.140592   -0.018420
   4 H :    0.075105   -0.002844
   5 H :   -0.044738    0.871665
   6 H :    0.142194   -0.019825
   7 N :   -0.355862    0.171744
Sum of atomic charges         :    0.0000000

LOEWDIN ATOMIC CHARGES AND SPIN POPULATIONS
-------------------------------------------
   0 H :   -0.017023    0.004377
   1 H :   -0.015893    0.004960
   2 C :    0.038587    0.016713
   3 H :   -0.104225    0.013251
   4 H :   -0.014820    0.003936
   5 H :    0.029039    0.756769
   6 H :   -0.103164    0.012643
   7 N :    0.187498    0.187351

  Mayer bond orders larger than 0.100000
B(  0-H ,  2-C ) :   1.0118 B(  1-H ,  2-C ) :   1.0140 B(  2-C ,  4-H ) :   1.0117
B(  2-C ,  7-N ) :   0.8539 B(  3-H ,  7-N ) :   1.0419 B(  5-H ,  7-N ) :   0.3389
B(  6-H ,  7-N ) :   1.0432

FINAL SINGLE POINT ENERGY       -96.364626489598

DIPOLE MOMENT
-------------
                                X             Y             Z
Electronic contribution:     -0.00849      -1.67561       0.49920
Nuclear contribution   :     -0.00825       0.82489      -0.08847
                        -----------------------------------------
Total Dipole Moment    :     -0.01675      -0.85072       0.41074
                        -----------------------------------------
Magnitude (a.u.)       :      0.94484
Magnitude (Debye)      :      2.40158

Rotational constants in cm-1:     2.000356     0.660608     0.601270
Rotational constants in MHz : 59969.149740 19804.516397 18025.616086

                             ****ORCA TERMINATED NORMALLY****
TOTAL RUN TIME: 0 days 0 hours 0 minutes 7 seconds 379 msec
