                         Program Version 4.2.0 -  RELEASE  -
|  1> #
|  2> # 125 wB97X-V/Def2-TZVPPD
|  3> #
|  4> ! wb97x-v def2-tzvppd def2/jk grid4 nofinalgrid
|  5>
|  6> *xyz 0 1
|  7> Li        -0.48880       -0.51538       -0.00659
|  8> H         -0.55944        2.54233       -0.00436
|  9> H         -2.17580       -1.82520        0.01329
| 10> C         -0.08896        1.54088       -0.00480
| 11> H         -1.56083       -2.26841        0.00934
| 12> Cl         1.44004       -1.55839       -0.00318
| 13> H          1.87023        0.32576       -0.00203
| 14> S          1.56356        1.75840       -0.00167
| 15> *
| 16>
| 17> %maxcore 5000
| 18>
| 19> %pal
| 20> nprocs = 24
| 21> end
| 22>
| 23>
| 24>                          ****END OF INPUT****

CARTESIAN COORDINATES (ANGSTROEM)
---------------------------------
  Li    -0.488800   -0.515380   -0.006590
  H     -0.559440    2.542330   -0.004360
  H     -2.175800   -1.825200    0.013290
  C     -0.088960    1.540880   -0.004800
  H     -1.560830   -2.268410    0.009340
  Cl     1.440040   -1.558390   -0.003180
  H      1.870230    0.325760   -0.002030
  S      1.563560    1.758400   -0.001670

 Total Charge           Charge          ....    0
 Multiplicity           Mult            ....    1
 Number of Electrons    NEL             ....   46
 Basis Dimension        Dim             ....  229

ORBITAL ENERGIES
----------------

  NO   OCC          E(Eh)            E(eV)
   0   2.0000    -101.432360     -2760.1148
   1   2.0000     -88.911933     -2419.4167
   2   2.0000     -10.343451      -281.4596
   3   2.0000      -9.473255      -257.7804
   4   2.0000      -8.089606      -220.1294
   5   2.0000      -7.222746      -196.5409
   6   2.0000      -7.222133      -196.5242
   7   2.0000      -7.221493      -196.5068
   8   2.0000      -6.042843      -164.4341
   9   2.0000      -6.042075      -164.4132
  10   2.0000      -6.039546      -164.3444
  11   2.0000      -2.089349       -56.8541
  12   2.0000      -0.953138       -25.9362
  13   2.0000      -0.859270       -23.3819
  14   2.0000      -0.726667       -19.7736
  15   2.0000      -0.601940       -16.3796
  16   2.0000      -0.544607       -14.8195
  17   2.0000      -0.523783       -14.2529
  18   2.0000      -0.440591       -11.9891
  19   2.0000      -0.394952       -10.7472
  20   2.0000      -0.384878       -10.4731
  21   2.0000      -0.367384        -9.9970
  22   2.0000      -0.347844        -9.4653
  23   0.0000      -0.027226        -0.7408
  24   0.0000       0.025665         0.6984
  25   0.0000       0.040124         1.0918
  26   0.0000       0.040490         1.1018
  27   0.0000       0.051714         1.4072

MULLIKEN ATOMIC CHARGES
-----------------------
   0 Li:    0.737951
   1 H :   -0.044928
   2 H :   -0.041308
   3 C :   -0.188384
   4 H :    0.091788
   5 Cl:   -0.723140
   6 H :    0.276369
   7 S :   -0.108347
Sum of atomic charges:    0.0000000

LOEWDIN ATOMIC CHARGES
----------------------
   0 Li:   -0.019711
   1 H :   -0.165171
   2 H :    0.093967
   3 C :   -0.356791
   4 H :    0.067137
   5 Cl:   -0.040748
   6 H :   -0.416067
   7 S :    0.837383

  Mayer bond orders larger than 0.100000
B(  0-Li,  3-C ) :   0.1176 B(  0-Li,  5-Cl) :   0.2375 B(  1-H ,  3-C ) :   1.1669
B(  2-H ,  4-H ) :   0.9439 B(  3-C ,  7-S ) :   1.6656 B(  5-Cl,  6-H ) :   0.1892
B(  6-H ,  7-S ) :   0.7531

FINAL SINGLE POINT ENERGY      -906.300824722303

DIPOLE MOMENT
-------------
                                X             Y             Z
Electronic contribution:      3.78408      -0.03770      -0.03069
Nuclear contribution   :     -5.38329       1.10078       0.02957
                        -----------------------------------------
Total Dipole Moment    :     -1.59921       1.06308      -0.00112
                        -----------------------------------------
Magnitude (a.u.)       :      1.92031
Magnitude (Debye)      :      4.88105

Rotational constants in cm-1:     0.253463     0.073830     0.057176
Rotational constants in MHz :  7598.615767  2213.361097  1714.083710

                             ****ORCA TERMINATED NORMALLY****
TOTAL RUN TIME: 0 days 0 hours 0 minutes 9 seconds 732 msec
