                         Program Version 4.2.0 -  RELEASE  -
|  1> #
|  2> # 136 wB97X-V/Def2-TZVPPD
|  3> #
|  4> ! wb97x-v def2-tzvppd def2/jk grid4 nofinalgrid
|  5>
|  6> *xyz 0 1
|  7> H         -0.64763        2.95877       -0.31431
|  8> H         -0.38809        2.29902       -0.56811
|  9> H         -0.46982        0.02713        1.23682
| 10> H         -0.44619       -2.23309       -1.25807
| 11> H          1.15514       -0.83076        1.35211
| 12> O          0.58676       -0.20120       -0.67466
| 13> C          0.25357       -0.64235        0.76247
| 14> B         -0.04374       -1.37752       -0.53625
| 15> *
| 16>
| 17> %maxcore 5000
| 18>
| 19> %pal
| 20> nprocs = 24
| 21> end
| 22>
| 23>
| 24>                          ****END OF INPUT****

CARTESIAN COORDINATES (ANGSTROEM)
---------------------------------
  H     -0.647630    2.958770   -0.314310
  H     -0.388090    2.299020   -0.568110
  H     -0.469820    0.027130    1.236820
  H     -0.446190   -2.233090   -1.258070
  H      1.155140   -0.830760    1.352110
  O      0.586760   -0.201200   -0.674660
  C      0.253570   -0.642350    0.762470
  B     -0.043740   -1.377520   -0.536250

 Total Charge           Charge          ....    0
 Multiplicity           Mult            ....    1
 Number of Electrons    NEL             ....   24
 Basis Dimension        Dim             ....  199

ORBITAL ENERGIES
----------------

  NO   OCC          E(Eh)            E(eV)
   0   2.0000     -19.248908      -523.7894
   1   2.0000     -10.321149      -280.8527
   2   2.0000      -6.885749      -187.3707
   3   2.0000      -1.180188       -32.1146
   4   2.0000      -0.794881       -21.6298
   5   2.0000      -0.626391       -17.0450
   6   2.0000      -0.586531       -15.9603
   7   2.0000      -0.574478       -15.6323
   8   2.0000      -0.530699       -14.4410
   9   2.0000      -0.496313       -13.5054
  10   2.0000      -0.436853       -11.8874
  11   2.0000      -0.401690       -10.9305
  12   0.0000       0.048394         1.3169
  13   0.0000       0.054048         1.4707
  14   0.0000       0.072490         1.9726
  15   0.0000       0.086444         2.3523
  16   0.0000       0.112576         3.0634

MULLIKEN ATOMIC CHARGES
-----------------------
   0 H :    0.065075
   1 H :   -0.068537
   2 H :    0.047244
   3 H :    0.038410
   4 H :    0.022456
   5 O :   -0.390221
   6 C :    0.092704
   7 B :    0.192869
Sum of atomic charges:   -0.0000000

LOEWDIN ATOMIC CHARGES
----------------------
   0 H :    0.033446
   1 H :    0.011424
   2 H :   -0.017448
   3 H :    0.022134
   4 H :   -0.012920
   5 O :    0.039215
   6 C :    0.123794
   7 B :   -0.199645

  Mayer bond orders larger than 0.100000
B(  0-H ,  1-H ) :   0.9956 B(  2-H ,  6-C ) :   0.9948 B(  3-H ,  7-B ) :   0.9802
B(  4-H ,  6-C ) :   1.0235 B(  5-O ,  6-C ) :   0.7873 B(  5-O ,  7-B ) :   1.2693
B(  6-C ,  7-B ) :   1.0193

FINAL SINGLE POINT ENERGY      -141.149071820651

DIPOLE MOMENT
-------------
                                X             Y             Z
Electronic contribution:      1.51671      -5.64092      -1.05420
Nuclear contribution   :     -1.71035       5.24617       1.44476
                        -----------------------------------------
Total Dipole Moment    :     -0.19363      -0.39474       0.39057
                        -----------------------------------------
Magnitude (a.u.)       :      0.58810
Magnitude (Debye)      :      1.49482

Rotational constants in cm-1:     0.613602     0.430998     0.306642
Rotational constants in MHz : 18395.316675 12920.983545  9192.908699

                             ****ORCA TERMINATED NORMALLY****
TOTAL RUN TIME: 0 days 0 hours 0 minutes 7 seconds 303 msec
