                         Program Version 4.2.0 -  RELEASE  -
|  1> #
|  2> # 138 wB97X-V/Def2-TZVPPD
|  3> #
|  4> ! wb97x-v def2-tzvppd def2/jk grid4 nofinalgrid
|  5>
|  6> *xyz 0 1
|  7> H          0.64849       -1.47778       -0.13722
|  8> H         -0.62659       -0.18590       -3.09890
|  9> H         -0.40094       -0.71477       -2.61128
| 10> H          0.74472        0.82794        2.20080
| 11> H          0.41684       -1.04544        0.48242
| 12> H         -0.86873        0.85706        2.13389
| 13> Na         0.12711        1.09566       -0.53418
| 14> N         -0.04090        0.64323        1.56447
| 15> *
| 16>
| 17> %maxcore 5000
| 18>
| 19> %pal
| 20> nprocs = 24
| 21> end
| 22>
| 23>
| 24>                          ****END OF INPUT****

CARTESIAN COORDINATES (ANGSTROEM)
---------------------------------
  H      0.648490   -1.477780   -0.137220
  H     -0.626590   -0.185900   -3.098900
  H     -0.400940   -0.714770   -2.611280
  H      0.744720    0.827940    2.200800
  H      0.416840   -1.045440    0.482420
  H     -0.868730    0.857060    2.133890
  Na     0.127110    1.095660   -0.534180
  N     -0.040900    0.643230    1.564470

 Total Charge           Charge          ....    0
 Multiplicity           Mult            ....    1
 Number of Electrons    NEL             ....   24
 Basis Dimension        Dim             ....  174

ORBITAL ENERGIES
----------------

  NO   OCC          E(Eh)            E(eV)
   0   2.0000     -38.524875     -1048.3152
   1   2.0000     -14.278111      -388.5272
   2   2.0000      -2.335128       -63.5421
   3   2.0000      -1.258471       -34.2447
   4   2.0000      -1.257690       -34.2235
   5   2.0000      -1.253976       -34.1224
   6   2.0000      -0.831985       -22.6395
   7   2.0000      -0.589515       -16.0415
   8   2.0000      -0.513300       -13.9676
   9   2.0000      -0.459778       -12.5112
  10   2.0000      -0.334245        -9.0953
  11   2.0000      -0.247706        -6.7404
  12   0.0000       0.000916         0.0249
  13   0.0000       0.019841         0.5399
  14   0.0000       0.025514         0.6943
  15   0.0000       0.033972         0.9244
  16   0.0000       0.065818         1.7910

MULLIKEN ATOMIC CHARGES
-----------------------
   0 H :   -0.115654
   1 H :    0.001292
   2 H :    0.018840
   3 H :   -0.018223
   4 H :    0.068314
   5 H :   -0.056486
   6 Na:    0.793605
   7 N :   -0.691687
Sum of atomic charges:    0.0000000

LOEWDIN ATOMIC CHARGES
----------------------
   0 H :    0.040417
   1 H :    0.049551
   2 H :    0.034160
   3 H :   -0.298392
   4 H :   -0.064772
   5 H :   -0.300020
   6 Na:    0.516732
   7 N :    0.022324

  Mayer bond orders larger than 0.100000
B(  0-H ,  4-H ) :   1.0373 B(  1-H ,  2-H ) :   0.9841 B(  3-H ,  7-N ) :   1.2199
B(  5-H ,  7-N ) :   1.2724 B(  6-Na,  7-N ) :   0.2793

FINAL SINGLE POINT ENERGY      -220.550269361790

DIPOLE MOMENT
-------------
                                X             Y             Z
Electronic contribution:      0.55017       7.02061      -1.01649
Nuclear contribution   :     -0.44551      -6.18803      -1.41111
                        -----------------------------------------
Total Dipole Moment    :      0.10466       0.83258      -2.42760
                        -----------------------------------------
Magnitude (a.u.)       :      2.56854
Magnitude (Debye)      :      6.52871

Rotational constants in cm-1:     0.993150     0.247328     0.211706
Rotational constants in MHz : 29773.882147  7414.712908  6346.774487

                             ****ORCA TERMINATED NORMALLY****
TOTAL RUN TIME: 0 days 0 hours 0 minutes 5 seconds 877 msec
