                         Program Version 4.2.0 -  RELEASE  -
|  1> #
|  2> # 143 wB97X-V/Def2-TZVPPD
|  3> #
|  4> ! wb97x-v def2-tzvppd def2/jk grid4 nofinalgrid
|  5>
|  6> *xyz 0 1
|  7> H          1.52165        0.00105        0.54476
|  8> C         -0.07322       -0.00002       -0.82132
|  9> C         -0.09157        0.00017        1.71374
| 10> H          0.24008        0.90261       -1.36729
| 11> N          0.49648       -0.00048        0.54416
| 12> H          0.26500       -0.88652       -1.37867
| 13> H         -1.19216       -0.00126        1.49873
| 14> H         -1.16627       -0.01555       -0.73412
| 15> *
| 16>
| 17> %maxcore 5000
| 18>
| 19> %pal
| 20> nprocs = 24
| 21> end
| 22>
| 23>
| 24>                          ****END OF INPUT****

CARTESIAN COORDINATES (ANGSTROEM)
---------------------------------
  H      1.521650    0.001050    0.544760
  C     -0.073220   -0.000020   -0.821320
  C     -0.091570    0.000170    1.713740
  H      0.240080    0.902610   -1.367290
  N      0.496480   -0.000480    0.544160
  H      0.265000   -0.886520   -1.378670
  H     -1.192160   -0.001260    1.498730
  H     -1.166270   -0.015550   -0.734120

 Total Charge           Charge          ....    0
 Multiplicity           Mult            ....    1
 Number of Electrons    NEL             ....   24
 Basis Dimension        Dim             ....  196

ORBITAL ENERGIES
----------------

  NO   OCC          E(Eh)            E(eV)
   0   2.0000     -14.471620      -393.7928
   1   2.0000     -10.322849      -280.8990
   2   2.0000     -10.281947      -279.7860
   3   2.0000      -1.087234       -29.5851
   4   2.0000      -0.860267       -23.4091
   5   2.0000      -0.747812       -20.3490
   6   2.0000      -0.611257       -16.6331
   7   2.0000      -0.574766       -15.6402
   8   2.0000      -0.550320       -14.9750
   9   2.0000      -0.511020       -13.9056
  10   2.0000      -0.431719       -11.7477
  11   2.0000      -0.310599        -8.4518
  12   0.0000       0.056866         1.5474
  13   0.0000       0.073223         1.9925
  14   0.0000       0.087283         2.3751
  15   0.0000       0.104768         2.8509
  16   0.0000       0.129891         3.5345

MULLIKEN ATOMIC CHARGES
-----------------------
   0 H :    0.110639
   1 C :   -0.152667
   2 C :   -0.137517
   3 H :    0.084667
   4 N :    0.004774
   5 H :    0.084073
   6 H :   -0.063581
   7 H :    0.069612
Sum of atomic charges:    0.0000000

LOEWDIN ATOMIC CHARGES
----------------------
   0 H :   -0.058265
   1 C :    0.135940
   2 C :    0.070322
   3 H :   -0.004002
   4 N :   -0.020011
   5 H :   -0.004061
   6 H :   -0.111808
   7 H :   -0.008115

  Mayer bond orders larger than 0.100000
B(  0-H ,  4-N ) :   1.0239 B(  1-C ,  3-H ) :   1.0109 B(  1-C ,  4-N ) :   0.8794
B(  1-C ,  5-H ) :   1.0104 B(  1-C ,  7-H ) :   0.9882 B(  2-C ,  4-N ) :   1.6017
B(  2-C ,  6-H ) :   1.0870

FINAL SINGLE POINT ENERGY      -133.893296839253

DIPOLE MOMENT
-------------
                                X             Y             Z
Electronic contribution:      0.92059      -0.00078       1.65496
Nuclear contribution   :     -0.81448       0.00081      -3.18683
                        -----------------------------------------
Total Dipole Moment    :      0.10611       0.00003      -1.53186
                        -----------------------------------------
Magnitude (a.u.)       :      1.53553
Magnitude (Debye)      :      3.90302

Rotational constants in cm-1:     1.686117     0.341111     0.300010
Rotational constants in MHz : 50548.520534 10226.261318  8994.065933

                             ****ORCA TERMINATED NORMALLY****
TOTAL RUN TIME: 0 days 0 hours 0 minutes 8 seconds 101 msec
