                         Program Version 4.2.0 -  RELEASE  -
|  1> #
|  2> # 167_li wB97X-V/Def2-TZVPPD
|  3> #
|  4> ! wb97x-v def2-tzvppd def2/jk grid4 nofinalgrid
|  5>
|  6> *xyz 0 1
|  7> Li         0.00000        0.00000        0.80730
|  8> H          0.00000        0.00000       -0.80730
|  9> *
| 10>
| 11> %maxcore 5000
| 12>
| 13> %pal
| 14> nprocs = 24
| 15> end
| 16>
| 17>
| 18>                          ****END OF INPUT****

CARTESIAN COORDINATES (ANGSTROEM)
---------------------------------
  Li     0.000000    0.000000    0.807300
  H      0.000000    0.000000   -0.807300

 Total Charge           Charge          ....    0
 Multiplicity           Mult            ....    1
 Number of Electrons    NEL             ....    4
 Basis Dimension        Dim             ....   39

ORBITAL ENERGIES
----------------

  NO   OCC          E(Eh)            E(eV)
   0   2.0000      -2.114579       -57.5406
   1   2.0000      -0.291096        -7.9211
   2   0.0000      -0.003506        -0.0954
   3   0.0000       0.033098         0.9006
   4   0.0000       0.033098         0.9006
   5   0.0000       0.068072         1.8523
   6   0.0000       0.116944         3.1822

MULLIKEN ATOMIC CHARGES
-----------------------
   0 Li:    0.602050
   1 H :   -0.602050
Sum of atomic charges:   -0.0000000

LOEWDIN ATOMIC CHARGES
----------------------
   0 Li:    0.299876
   1 H :   -0.299876

  Mayer bond orders larger than 0.100000
B(  0-Li,  1-H ) :   0.6405

FINAL SINGLE POINT ENERGY        -8.070448104567

DIPOLE MOMENT
-------------
                                X             Y             Z
Electronic contribution:     -0.00000      -0.00000       3.80779
Nuclear contribution   :      0.00000       0.00000      -1.50351
                        -----------------------------------------
Total Dipole Moment    :     -0.00000      -0.00000       2.30428
                        -----------------------------------------
Magnitude (a.u.)       :      2.30428
Magnitude (Debye)      :      5.85702

Rotational constants in cm-1:     0.000000     7.346778     7.346778
Rotational constants in MHz :     0.000000 220250.867747 220250.867747

                             ****ORCA TERMINATED NORMALLY****
TOTAL RUN TIME: 0 days 0 hours 0 minutes 2 seconds 959 msec
