                         Program Version 4.2.0 -  RELEASE  -
|  1> #
|  2> # 168_be wB97X-V/Def2-TZVPPD
|  3> #
|  4> ! wb97x-v def2-tzvppd def2/jk grid4 nofinalgrid
|  5>
|  6> *xyz 0 1
|  7> Be         0.00000        0.00000        0.00000
|  8> H          0.00000        0.00000       -1.34402
|  9> H          0.00000        0.00000        1.34402
| 10> *
| 11>
| 12> %maxcore 5000
| 13>
| 14> %pal
| 15> nprocs = 24
| 16> end
| 17>
| 18>
| 19>                          ****END OF INPUT****

CARTESIAN COORDINATES (ANGSTROEM)
---------------------------------
  Be     0.000000    0.000000    0.000000
  H      0.000000    0.000000   -1.344020
  H      0.000000    0.000000    1.344020

 Total Charge           Charge          ....    0
 Multiplicity           Mult            ....    1
 Number of Electrons    NEL             ....    6
 Basis Dimension        Dim             ....   56

ORBITAL ENERGIES
----------------

  NO   OCC          E(Eh)            E(eV)
   0   2.0000      -4.144827      -112.7865
   1   2.0000      -0.461567       -12.5599
   2   2.0000      -0.420402       -11.4397
   3   0.0000       0.025853         0.7035
   4   0.0000       0.025853         0.7035
   5   0.0000       0.062495         1.7006
   6   0.0000       0.064220         1.7475
   7   0.0000       0.104065         2.8318

MULLIKEN ATOMIC CHARGES
-----------------------
   0 Be:    0.165680
   1 H :   -0.082840
   2 H :   -0.082840
Sum of atomic charges:   -0.0000000

LOEWDIN ATOMIC CHARGES
----------------------
   0 Be:    0.360688
   1 H :   -0.180344
   2 H :   -0.180344

  Mayer bond orders larger than 0.100000
B(  0-Be,  1-H ) :   0.9677 B(  0-Be,  2-H ) :   0.9677 B(  1-H ,  2-H ) :   0.1112

FINAL SINGLE POINT ENERGY       -15.904740028210

DIPOLE MOMENT
-------------
                                X             Y             Z
Electronic contribution:     -0.00000       0.00000       0.00000
Nuclear contribution   :      0.00000       0.00000       0.00000
                        -----------------------------------------
Total Dipole Moment    :     -0.00000       0.00000       0.00000
                        -----------------------------------------
Magnitude (a.u.)       :      0.00000
Magnitude (Debye)      :      0.00000

Rotational constants in cm-1:     0.000000     4.629082     4.629082
Rotational constants in MHz :     0.000000 138776.398767 138776.398767

                             ****ORCA TERMINATED NORMALLY****
TOTAL RUN TIME: 0 days 0 hours 0 minutes 3 seconds 116 msec
