                         Program Version 4.2.0 -  RELEASE  -
|  1> #
|  2> # 169_b wB97X-V/Def2-TZVPPD
|  3> #
|  4> ! wb97x-v def2-tzvppd def2/jk grid4 nofinalgrid
|  5>
|  6> *xyz 0 1
|  7> B          0.00000        0.00000        0.00000
|  8> H          0.60006        1.03933        0.00000
|  9> H          0.60006       -1.03933        0.00000
| 10> H         -1.20012        0.00000        0.00000
| 11> *
| 12>
| 13> %maxcore 5000
| 14>
| 15> %pal
| 16> nprocs = 24
| 17> end
| 18>
| 19>
| 20>                          ****END OF INPUT****

CARTESIAN COORDINATES (ANGSTROEM)
---------------------------------
  B      0.000000    0.000000    0.000000
  H      0.600060    1.039330    0.000000
  H      0.600060   -1.039330    0.000000
  H     -1.200120    0.000000    0.000000

 Total Charge           Charge          ....    0
 Multiplicity           Mult            ....    1
 Number of Electrons    NEL             ....    8
 Basis Dimension        Dim             ....   88

ORBITAL ENERGIES
----------------

  NO   OCC          E(Eh)            E(eV)
   0   2.0000      -6.869968      -186.9413
   1   2.0000      -0.638886       -17.3850
   2   2.0000      -0.461978       -12.5711
   3   2.0000      -0.461978       -12.5711
   4   0.0000       0.007750         0.2109
   5   0.0000       0.045904         1.2491
   6   0.0000       0.131366         3.5747
   7   0.0000       0.131367         3.5747
   8   0.0000       0.142936         3.8895

MULLIKEN ATOMIC CHARGES
-----------------------
   0 B :   -0.049215
   1 H :    0.016424
   2 H :    0.016424
   3 H :    0.016368
Sum of atomic charges:   -0.0000000

LOEWDIN ATOMIC CHARGES
----------------------
   0 B :    0.244981
   1 H :   -0.081660
   2 H :   -0.081660
   3 H :   -0.081661

  Mayer bond orders larger than 0.100000
B(  0-B ,  1-H ) :   0.9948 B(  0-B ,  2-H ) :   0.9948 B(  0-B ,  3-H ) :   0.9948

FINAL SINGLE POINT ENERGY       -26.605787830646

DIPOLE MOMENT
-------------
                                X             Y             Z
Electronic contribution:     -0.00000       0.00000       0.00000
Nuclear contribution   :      0.00000       0.00000       0.00000
                        -----------------------------------------
Total Dipole Moment    :     -0.00000       0.00000       0.00000
                        -----------------------------------------
Magnitude (a.u.)       :      0.00000
Magnitude (Debye)      :      0.00000

Rotational constants in cm-1:     7.741042     7.740977     3.870505
Rotational constants in MHz : 232070.613118 232068.644801 116034.814478

                             ****ORCA TERMINATED NORMALLY****
TOTAL RUN TIME: 0 days 0 hours 0 minutes 2 seconds 694 msec
