                         Program Version 4.2.0 -  RELEASE  -
|  1> #
|  2> # 171_n wB97X-V/Def2-TZVPPD
|  3> #
|  4> ! wb97x-v def2-tzvppd def2/jk grid4 nofinalgrid
|  5>
|  6> *xyz 0 1
|  7> N          0.00000        0.00000        0.55227
|  8> N          0.00000        0.00000       -0.55227
|  9> *
| 10>
| 11> %maxcore 5000
| 12>
| 13> %pal
| 14> nprocs = 24
| 15> end
| 16>
| 17>
| 18>                          ****END OF INPUT****

CARTESIAN COORDINATES (ANGSTROEM)
---------------------------------
  N      0.000000    0.000000    0.552270
  N      0.000000    0.000000   -0.552270

 Total Charge           Charge          ....    0
 Multiplicity           Mult            ....    1
 Number of Electrons    NEL             ....   14
 Basis Dimension        Dim             ....   74

ORBITAL ENERGIES
----------------

  NO   OCC          E(Eh)            E(eV)
   0   2.0000     -14.518305      -395.0632
   1   2.0000     -14.516657      -395.0183
   2   2.0000      -1.255567       -34.1657
   3   2.0000      -0.679599       -18.4928
   4   2.0000      -0.579515       -15.7694
   5   2.0000      -0.579515       -15.7694
   6   2.0000      -0.549473       -14.9519
   7   0.0000       0.066746         1.8163
   8   0.0000       0.066746         1.8163
   9   0.0000       0.117316         3.1923
  10   0.0000       0.147981         4.0268
  11   0.0000       0.295703         8.0465

MULLIKEN ATOMIC CHARGES
-----------------------
   0 N :    0.000002
   1 N :   -0.000002
Sum of atomic charges:    0.0000000

LOEWDIN ATOMIC CHARGES
----------------------
   0 N :    0.000000
   1 N :   -0.000000

  Mayer bond orders larger than 0.100000
B(  0-N ,  1-N ) :   2.7934

FINAL SINGLE POINT ENERGY      -109.539956299914

DIPOLE MOMENT
-------------
                                X             Y             Z
Electronic contribution:      0.00000       0.00000       0.00000
Nuclear contribution   :      0.00000       0.00000       0.00000
                        -----------------------------------------
Total Dipole Moment    :      0.00000       0.00000       0.00000
                        -----------------------------------------
Magnitude (a.u.)       :      0.00000
Magnitude (Debye)      :      0.00000

Rotational constants in cm-1:     0.000000     1.972963     1.972963
Rotational constants in MHz :     0.000000 59147.933340 59147.933340

                             ****ORCA TERMINATED NORMALLY****
TOTAL RUN TIME: 0 days 0 hours 0 minutes 2 seconds 929 msec
