                         Program Version 4.2.0 -  RELEASE  -
|  1> #
|  2> # 172_o wB97X-V/Def2-TZVPPD
|  3> #
|  4> ! wb97x-v def2-tzvppd def2/jk grid4 nofinalgrid
|  5>
|  6> *xyz 0 3
|  7> O          0.00000        0.00000        0.61122
|  8> O          0.00000        0.00000       -0.61122
|  9> *
| 10>
| 11> %maxcore 5000
| 12>
| 13> %pal
| 14> nprocs = 24
| 15> end
| 16>
| 17>
| 18>                          ****END OF INPUT****

CARTESIAN COORDINATES (ANGSTROEM)
---------------------------------
  O      0.000000    0.000000    0.611220
  O      0.000000    0.000000   -0.611220

 Total Charge           Charge          ....    0
 Multiplicity           Mult            ....    3
 Number of Electrons    NEL             ....   16
 Basis Dimension        Dim             ....   80

ORBITAL ENERGIES
----------------
                 SPIN UP ORBITALS
  NO   OCC          E(Eh)            E(eV)
   0   1.0000     -19.380938      -527.3821
   1   1.0000     -19.380863      -527.3801
   2   1.0000      -1.431951       -38.9654
   3   1.0000      -0.977518       -26.5996
   4   1.0000      -0.684035       -18.6135
   5   1.0000      -0.684035       -18.6135
   6   1.0000      -0.669653       -18.2222
   7   1.0000      -0.431874       -11.7519
   8   1.0000      -0.431874       -11.7519
   9   0.0000       0.080472         2.1898
  10   0.0000       0.111500         3.0341
  11   0.0000       0.120989         3.2923
  12   0.0000       0.120989         3.2923
  13   0.0000       0.160692         4.3727

                 SPIN DOWN ORBITALS
  NO   OCC          E(Eh)            E(eV)
   0   1.0000     -19.355362      -526.6862
   1   1.0000     -19.355068      -526.6782
   2   1.0000      -1.375781       -37.4369
   3   1.0000      -0.885977       -24.1087
   4   1.0000      -0.629527       -17.1303
   5   1.0000      -0.574731       -15.6392
   6   1.0000      -0.574731       -15.6392
   7   0.0000      -0.025803        -0.7021
   8   0.0000      -0.025803        -0.7021
   9   0.0000       0.083872         2.2823
  10   0.0000       0.115635         3.1466
  11   0.0000       0.125030         3.4022

MULLIKEN ATOMIC CHARGES AND SPIN POPULATIONS
--------------------------------------------
   0 O :    0.000000    1.000000
   1 O :   -0.000000    1.000000
Sum of atomic charges         :   -0.0000000

LOEWDIN ATOMIC CHARGES AND SPIN POPULATIONS
-------------------------------------------
   0 O :    0.000000    1.000000
   1 O :   -0.000000    1.000000

  Mayer bond orders larger than 0.100000
B(  0-O ,  1-O ) :   1.7238

FINAL SINGLE POINT ENERGY      -150.338683304058

DIPOLE MOMENT
-------------
                                X             Y             Z
Electronic contribution:      0.00000       0.00000      -0.00000
Nuclear contribution   :      0.00000       0.00000       0.00000
                        -----------------------------------------
Total Dipole Moment    :      0.00000       0.00000      -0.00000
                        -----------------------------------------
Magnitude (a.u.)       :      0.00000
Magnitude (Debye)      :      0.00000

Rotational constants in cm-1:     0.000000     1.410194     1.410194
Rotational constants in MHz :     0.000000 42276.561443 42276.561443

                             ****ORCA TERMINATED NORMALLY****
TOTAL RUN TIME: 0 days 0 hours 0 minutes 3 seconds 259 msec
