                         Program Version 4.2.0 -  RELEASE  -
|  1> #
|  2> # 173_f wB97X-V/Def2-TZVPPD
|  3> #
|  4> ! wb97x-v def2-tzvppd def2/jk grid4 nofinalgrid
|  5>
|  6> *xyz 0 1
|  7> F          0.00000        0.00000        0.71109
|  8> F          0.00000        0.00000       -0.71109
|  9> *
| 10>
| 11> %maxcore 5000
| 12>
| 13> %pal
| 14> nprocs = 24
| 15> end
| 16>
| 17>
| 18>                          ****END OF INPUT****

CARTESIAN COORDINATES (ANGSTROEM)
---------------------------------
  F      0.000000    0.000000    0.711090
  F      0.000000    0.000000   -0.711090

 Total Charge           Charge          ....    0
 Multiplicity           Mult            ....    1
 Number of Electrons    NEL             ....   18
 Basis Dimension        Dim             ....   80

ORBITAL ENERGIES
----------------

  NO   OCC          E(Eh)            E(eV)
   0   2.0000     -24.879059      -676.9936
   1   2.0000     -24.879043      -676.9932
   2   2.0000      -1.481211       -40.3058
   3   2.0000      -1.246689       -33.9241
   4   2.0000      -0.715325       -19.4650
   5   2.0000      -0.663345       -18.0505
   6   2.0000      -0.663345       -18.0505
   7   2.0000      -0.535397       -14.5689
   8   2.0000      -0.535397       -14.5689
   9   0.0000      -0.062561        -1.7024
  10   0.0000       0.108256         2.9458
  11   0.0000       0.138518         3.7693
  12   0.0000       0.145839         3.9685
  13   0.0000       0.145839         3.9685

MULLIKEN ATOMIC CHARGES
-----------------------
   0 F :   -0.000000
   1 F :    0.000000
Sum of atomic charges:   -0.0000000

LOEWDIN ATOMIC CHARGES
----------------------
   0 F :   -0.000000
   1 F :    0.000000

  Mayer bond orders larger than 0.100000
B(  0-F ,  1-F ) :   0.8872

FINAL SINGLE POINT ENERGY      -199.528757094586

DIPOLE MOMENT
-------------
                                X             Y             Z
Electronic contribution:     -0.00000       0.00000      -0.00000
Nuclear contribution   :      0.00000       0.00000       0.00000
                        -----------------------------------------
Total Dipole Moment    :     -0.00000       0.00000      -0.00000
                        -----------------------------------------
Magnitude (a.u.)       :      0.00000
Magnitude (Debye)      :      0.00000

Rotational constants in cm-1:     0.000000     0.877425     0.877425
Rotational constants in MHz :     0.000000 26304.532186 26304.532186

                             ****ORCA TERMINATED NORMALLY****
TOTAL RUN TIME: 0 days 0 hours 0 minutes 3 seconds 546 msec
