                         Program Version 4.2.0 -  RELEASE  -
|  1> #
|  2> # 174_na wB97X-V/Def2-TZVPPD
|  3> #
|  4> ! wb97x-v def2-tzvppd def2/jk grid4 nofinalgrid
|  5>
|  6> *xyz 0 1
|  7> Na         0.00000        0.00000        0.94863
|  8> H          0.00000        0.00000       -0.94863
|  9> *
| 10>
| 11> %maxcore 5000
| 12>
| 13> %pal
| 14> nprocs = 24
| 15> end
| 16>
| 17>
| 18>                          ****END OF INPUT****

CARTESIAN COORDINATES (ANGSTROEM)
---------------------------------
  Na     0.000000    0.000000    0.948630
  H      0.000000    0.000000   -0.948630

 Total Charge           Charge          ....    0
 Multiplicity           Mult            ....    1
 Number of Electrons    NEL             ....   12
 Basis Dimension        Dim             ....   52

ORBITAL ENERGIES
----------------

  NO   OCC          E(Eh)            E(eV)
   0   2.0000     -38.533175     -1048.5410
   1   2.0000      -2.342924       -63.7542
   2   2.0000      -1.265252       -34.4293
   3   2.0000      -1.265252       -34.4293
   4   2.0000      -1.261966       -34.3398
   5   2.0000      -0.272309        -7.4099
   6   0.0000      -0.008446        -0.2298
   7   0.0000       0.019781         0.5383
   8   0.0000       0.019781         0.5383
   9   0.0000       0.037184         1.0118
  10   0.0000       0.067927         1.8484

MULLIKEN ATOMIC CHARGES
-----------------------
   0 Na:    0.475834
   1 H :   -0.475834
Sum of atomic charges:    0.0000000

LOEWDIN ATOMIC CHARGES
----------------------
   0 Na:    0.312037
   1 H :   -0.312037

  Mayer bond orders larger than 0.100000
B(  0-Na,  1-H ) :   0.7867

FINAL SINGLE POINT ENERGY      -162.811055502000

DIPOLE MOMENT
-------------
                                X             Y             Z
Electronic contribution:      0.00000       0.00000       4.37728
Nuclear contribution   :      0.00000       0.00000      -1.77816
                        -----------------------------------------
Total Dipole Moment    :      0.00000       0.00000       2.59913
                        -----------------------------------------
Magnitude (a.u.)       :      2.59913
Magnitude (Debye)      :      6.60645

Rotational constants in cm-1:     0.000000     4.849743     4.849743
Rotational constants in MHz :     0.000000 145391.644375 145391.644375

                             ****ORCA TERMINATED NORMALLY****
TOTAL RUN TIME: 0 days 0 hours 0 minutes 2 seconds 917 msec
