                         Program Version 4.2.0 -  RELEASE  -
|  1> #
|  2> # 176_al wB97X-V/Def2-TZVPPD
|  3> #
|  4> ! wb97x-v def2-tzvppd def2/jk grid4 nofinalgrid
|  5>
|  6> *xyz 0 1
|  7> Al         0.00000        0.00000        0.00000
|  8> H          0.80046       -1.38644        0.00000
|  9> H          0.80046        1.38644        0.00000
| 10> H         -1.60093        0.00000        0.00000
| 11> *
| 12>
| 13> %maxcore 5000
| 14>
| 15> %pal
| 16> nprocs = 24
| 17> end
| 18>
| 19>
| 20>                          ****END OF INPUT****

CARTESIAN COORDINATES (ANGSTROEM)
---------------------------------
  Al     0.000000    0.000000    0.000000
  H      0.800460   -1.386440    0.000000
  H      0.800460    1.386440    0.000000
  H     -1.600930    0.000000    0.000000

 Total Charge           Charge          ....    0
 Multiplicity           Mult            ....    1
 Number of Electrons    NEL             ....   16
 Basis Dimension        Dim             ....   99

ORBITAL ENERGIES
----------------

  NO   OCC          E(Eh)            E(eV)
   0   2.0000     -56.067034     -1525.6616
   1   2.0000      -4.254050      -115.7586
   2   2.0000      -2.804407       -76.3118
   3   2.0000      -2.794473       -76.0415
   4   2.0000      -2.794473       -76.0415
   5   2.0000      -0.536929       -14.6106
   6   2.0000      -0.408400       -11.1131
   7   2.0000      -0.408399       -11.1131
   8   0.0000       0.003177         0.0864
   9   0.0000       0.048236         1.3126
  10   0.0000       0.086591         2.3562
  11   0.0000       0.092473         2.5163
  12   0.0000       0.092474         2.5163

MULLIKEN ATOMIC CHARGES
-----------------------
   0 Al:    0.518832
   1 H :   -0.172937
   2 H :   -0.172937
   3 H :   -0.172958
Sum of atomic charges:    0.0000000

LOEWDIN ATOMIC CHARGES
----------------------
   0 Al:    0.632171
   1 H :   -0.210724
   2 H :   -0.210724
   3 H :   -0.210723

  Mayer bond orders larger than 0.100000
B(  0-Al,  1-H ) :   0.9342 B(  0-Al,  2-H ) :   0.9342 B(  0-Al,  3-H ) :   0.9342

FINAL SINGLE POINT ENERGY      -244.161460817442

DIPOLE MOMENT
-------------
                                X             Y             Z
Electronic contribution:      0.00002       0.00000      -0.00000
Nuclear contribution   :     -0.00001       0.00000       0.00000
                        -----------------------------------------
Total Dipole Moment    :      0.00001       0.00000      -0.00000
                        -----------------------------------------
Magnitude (a.u.)       :      0.00001
Magnitude (Debye)      :      0.00003

Rotational constants in cm-1:     4.350150     4.350130     2.175070
Rotational constants in MHz : 130414.210579 130413.615544 65206.956531

                             ****ORCA TERMINATED NORMALLY****
TOTAL RUN TIME: 0 days 0 hours 0 minutes 3 seconds 622 msec
