                         Program Version 4.2.0 -  RELEASE  -
|  1> #
|  2> # 177_si wB97X-V/Def2-TZVPPD
|  3> #
|  4> ! wb97x-v def2-tzvppd def2/jk grid4 nofinalgrid
|  5>
|  6> *xyz 0 1
|  7> Si         0.00000        0.00000        0.00000
|  8> H         -0.86552        0.86552        0.86552
|  9> H          0.86552       -0.86552        0.86552
| 10> H         -0.86552       -0.86552       -0.86552
| 11> H          0.86552        0.86552       -0.86552
| 12> *
| 13>
| 14> %maxcore 5000
| 15>
| 16> %pal
| 17> nprocs = 24
| 18> end
| 19>
| 20>
| 21>                          ****END OF INPUT****

CARTESIAN COORDINATES (ANGSTROEM)
---------------------------------
  Si     0.000000    0.000000    0.000000
  H     -0.865520    0.865520    0.865520
  H      0.865520   -0.865520    0.865520
  H     -0.865520   -0.865520   -0.865520
  H      0.865520    0.865520   -0.865520

 Total Charge           Charge          ....    0
 Multiplicity           Mult            ....    1
 Number of Electrons    NEL             ....   18
 Basis Dimension        Dim             ....  116

ORBITAL ENERGIES
----------------

  NO   OCC          E(Eh)            E(eV)
   0   2.0000     -66.137243     -1799.6859
   1   2.0000      -5.389718      -146.6617
   2   2.0000      -3.739146      -101.7473
   3   2.0000      -3.739146      -101.7473
   4   2.0000      -3.739146      -101.7473
   5   2.0000      -0.671305       -18.2671
   6   2.0000      -0.456084       -12.4107
   7   2.0000      -0.456084       -12.4107
   8   2.0000      -0.456084       -12.4107
   9   0.0000       0.062911         1.7119
  10   0.0000       0.096250         2.6191
  11   0.0000       0.096250         2.6191
  12   0.0000       0.096250         2.6191
  13   0.0000       0.127072         3.4578

MULLIKEN ATOMIC CHARGES
-----------------------
   0 Si:    0.324949
   1 H :   -0.081237
   2 H :   -0.081237
   3 H :   -0.081237
   4 H :   -0.081237
Sum of atomic charges:   -0.0000000

LOEWDIN ATOMIC CHARGES
----------------------
   0 Si:    0.654972
   1 H :   -0.163743
   2 H :   -0.163743
   3 H :   -0.163743
   4 H :   -0.163743

  Mayer bond orders larger than 0.100000
B(  0-Si,  1-H ) :   0.9713 B(  0-Si,  2-H ) :   0.9713 B(  0-Si,  3-H ) :   0.9713
B(  0-Si,  4-H ) :   0.9713

FINAL SINGLE POINT ENERGY      -291.840077101668

DIPOLE MOMENT
-------------
                                X             Y             Z
Electronic contribution:      0.00000       0.00000      -0.00000
Nuclear contribution   :      0.00000       0.00000       0.00000
                        -----------------------------------------
Total Dipole Moment    :      0.00000       0.00000      -0.00000
                        -----------------------------------------
Magnitude (a.u.)       :      0.00000
Magnitude (Debye)      :      0.00000

Rotational constants in cm-1:     2.790565     2.790565     2.790565
Rotational constants in MHz : 83659.038574 83659.038574 83659.038574

                             ****ORCA TERMINATED NORMALLY****
TOTAL RUN TIME: 0 days 0 hours 0 minutes 3 seconds 379 msec
