                         Program Version 4.2.0 -  RELEASE  -
|  1> #
|  2> # 178_p wB97X-V/Def2-TZVPPD
|  3> #
|  4> ! wb97x-v def2-tzvppd def2/jk grid4 nofinalgrid
|  5>
|  6> *xyz 0 1
|  7> P          0.00000        0.00000        0.95949
|  8> P          0.00000        0.00000       -0.95949
|  9> *
| 10>
| 11> %maxcore 5000
| 12>
| 13> %pal
| 14> nprocs = 24
| 15> end
| 16>
| 17>
| 18>                          ****END OF INPUT****

CARTESIAN COORDINATES (ANGSTROEM)
---------------------------------
  P      0.000000    0.000000    0.959490
  P      0.000000    0.000000   -0.959490

 Total Charge           Charge          ....    0
 Multiplicity           Mult            ....    1
 Number of Electrons    NEL             ....   30
 Basis Dimension        Dim             ....   96

ORBITAL ENERGIES
----------------

  NO   OCC          E(Eh)            E(eV)
   0   2.0000     -77.103446     -2098.0914
   1   2.0000     -77.103415     -2098.0906
   2   2.0000      -6.683835      -181.8764
   3   2.0000      -6.683413      -181.8649
   4   2.0000      -4.837165      -131.6259
   5   2.0000      -4.837165      -131.6259
   6   2.0000      -4.837000      -131.6215
   7   2.0000      -4.837000      -131.6215
   8   2.0000      -4.833092      -131.5151
   9   2.0000      -4.831228      -131.4644
  10   2.0000      -0.806619       -21.9492
  11   2.0000      -0.577799       -15.7227
  12   2.0000      -0.394470       -10.7341
  13   2.0000      -0.375997       -10.2314
  14   2.0000      -0.375997       -10.2314
  15   0.0000      -0.025275        -0.6878
  16   0.0000      -0.025275        -0.6878
  17   0.0000       0.081251         2.2110
  18   0.0000       0.090395         2.4598
  19   0.0000       0.154533         4.2050

MULLIKEN ATOMIC CHARGES
-----------------------
   0 P :    0.000002
   1 P :   -0.000002
Sum of atomic charges:   -0.0000000

LOEWDIN ATOMIC CHARGES
----------------------
   0 P :    0.000000
   1 P :   -0.000000

  Mayer bond orders larger than 0.100000
B(  0-P ,  1-P ) :   2.8531

FINAL SINGLE POINT ENERGY      -682.589087095666

DIPOLE MOMENT
-------------
                                X             Y             Z
Electronic contribution:      0.00000       0.00000      -0.00000
Nuclear contribution   :      0.00000       0.00000       0.00000
                        -----------------------------------------
Total Dipole Moment    :      0.00000       0.00000      -0.00000
                        -----------------------------------------
Magnitude (a.u.)       :      0.00000
Magnitude (Debye)      :      0.00000

Rotational constants in cm-1:     0.000000     0.295589     0.295589
Rotational constants in MHz :     0.000000  8861.544214  8861.544214

                             ****ORCA TERMINATED NORMALLY****
TOTAL RUN TIME: 0 days 0 hours 0 minutes 3 seconds 821 msec
