                         Program Version 4.2.0 -  RELEASE  -
|  1> #
|  2> # 179_s wB97X-V/Def2-TZVPPD
|  3> #
|  4> ! wb97x-v def2-tzvppd def2/jk grid4 nofinalgrid
|  5>
|  6> *xyz 0 3
|  7> S          0.00000        0.00000        0.96937
|  8> S          0.00000        0.00000       -0.96937
|  9> *
| 10>
| 11> %maxcore 5000
| 12>
| 13> %pal
| 14> nprocs = 24
| 15> end
| 16>
| 17>
| 18>                          ****END OF INPUT****

CARTESIAN COORDINATES (ANGSTROEM)
---------------------------------
  S      0.000000    0.000000    0.969370
  S      0.000000    0.000000   -0.969370

 Total Charge           Charge          ....    0
 Multiplicity           Mult            ....    3
 Number of Electrons    NEL             ....   32
 Basis Dimension        Dim             ....  102

ORBITAL ENERGIES
----------------
                 SPIN UP ORBITALS
  NO   OCC          E(Eh)            E(eV)
   0   1.0000     -88.923912     -2419.7427
   1   1.0000     -88.923898     -2419.7423
   2   1.0000      -8.098070      -220.3597
   3   1.0000      -8.097960      -220.3567
   4   1.0000      -6.052051      -164.6847
   5   1.0000      -6.052051      -164.6847
   6   1.0000      -6.052027      -164.6840
   7   1.0000      -6.052027      -164.6840
   8   1.0000      -6.051657      -164.6739
   9   1.0000      -6.051072      -164.6580
  10   1.0000      -0.965021       -26.2595
  11   1.0000      -0.765798       -20.8384
  12   1.0000      -0.502054       -13.6616
  13   1.0000      -0.487556       -13.2671
  14   1.0000      -0.487556       -13.2671
  15   1.0000      -0.352648        -9.5960
  16   1.0000      -0.352648        -9.5960
  17   0.0000       0.034633         0.9424
  18   0.0000       0.076597         2.0843
  19   0.0000       0.076597         2.0843
  20   0.0000       0.077377         2.1055
  21   0.0000       0.087821         2.3897

                 SPIN DOWN ORBITALS
  NO   OCC          E(Eh)            E(eV)
   0   1.0000     -88.917755     -2419.5751
   1   1.0000     -88.917744     -2419.5748
   2   1.0000      -8.092828      -220.2170
   3   1.0000      -8.092641      -220.2120
   4   1.0000      -6.047994      -164.5743
   5   1.0000      -6.047401      -164.5581
   6   1.0000      -6.040416      -164.3681
   7   1.0000      -6.040416      -164.3681
   8   1.0000      -6.040375      -164.3670
   9   1.0000      -6.040375      -164.3670
  10   1.0000      -0.934563       -25.4308
  11   1.0000      -0.698189       -18.9987
  12   1.0000      -0.478541       -13.0218
  13   1.0000      -0.422737       -11.5033
  14   1.0000      -0.422737       -11.5033
  15   0.0000      -0.066034        -1.7969
  16   0.0000      -0.066034        -1.7969
  17   0.0000       0.041132         1.1193
  18   0.0000       0.078849         2.1456
  19   0.0000       0.078849         2.1456

MULLIKEN ATOMIC CHARGES AND SPIN POPULATIONS
--------------------------------------------
   0 S :   -0.000001    1.000001
   1 S :    0.000001    0.999999
Sum of atomic charges         :   -0.0000000

LOEWDIN ATOMIC CHARGES AND SPIN POPULATIONS
-------------------------------------------
   0 S :   -0.000000    1.000000
   1 S :    0.000000    1.000000

  Mayer bond orders larger than 0.100000
B(  0-S ,  1-S ) :   1.9582

FINAL SINGLE POINT ENERGY      -796.263670462628

DIPOLE MOMENT
-------------
                                X             Y             Z
Electronic contribution:      0.00000       0.00000       0.00000
Nuclear contribution   :      0.00000       0.00000       0.00000
                        -----------------------------------------
Total Dipole Moment    :      0.00000       0.00000       0.00000
                        -----------------------------------------
Magnitude (a.u.)       :      0.00000
Magnitude (Debye)      :      0.00000

Rotational constants in cm-1:     0.000000     0.279785     0.279785
Rotational constants in MHz :     0.000000  8387.739618  8387.739618

                             ****ORCA TERMINATED NORMALLY****
TOTAL RUN TIME: 0 days 0 hours 0 minutes 3 seconds 568 msec
