                         Program Version 4.2.0 -  RELEASE  -
|  1> #
|  2> # 180_cl wB97X-V/Def2-TZVPPD
|  3> #
|  4> ! wb97x-v def2-tzvppd def2/jk grid4 nofinalgrid
|  5>
|  6> *xyz 0 1
|  7> Cl         0.00000        0.00000        1.02399
|  8> Cl         0.00000        0.00000       -1.02399
|  9> *
| 10>
| 11> %maxcore 5000
| 12>
| 13> %pal
| 14> nprocs = 24
| 15> end
| 16>
| 17>
| 18>                          ****END OF INPUT****

CARTESIAN COORDINATES (ANGSTROEM)
---------------------------------
  Cl     0.000000    0.000000    1.023990
  Cl     0.000000    0.000000   -1.023990

 Total Charge           Charge          ....    0
 Multiplicity           Mult            ....    1
 Number of Electrons    NEL             ....   34
 Basis Dimension        Dim             ....  102

ORBITAL ENERGIES
----------------

  NO   OCC          E(Eh)            E(eV)
   0   2.0000    -101.581344     -2764.1689
   1   2.0000    -101.581335     -2764.1686
   2   2.0000      -9.617172      -261.6966
   3   2.0000      -9.617152      -261.6960
   4   2.0000      -7.376026      -200.7119
   5   2.0000      -7.375935      -200.7094
   6   2.0000      -7.361327      -200.3119
   7   2.0000      -7.361327      -200.3119
   8   2.0000      -7.361319      -200.3117
   9   2.0000      -7.361319      -200.3117
  10   2.0000      -1.058494       -28.8031
  11   2.0000      -0.902929       -24.5699
  12   2.0000      -0.569446       -15.4954
  13   2.0000      -0.520209       -14.1556
  14   2.0000      -0.520209       -14.1556
  15   2.0000      -0.418865       -11.3979
  16   2.0000      -0.418865       -11.3979
  17   0.0000      -0.052203        -1.4205
  18   0.0000       0.069303         1.8858
  19   0.0000       0.091553         2.4913
  20   0.0000       0.091553         2.4913
  21   0.0000       0.093440         2.5426

MULLIKEN ATOMIC CHARGES
-----------------------
   0 Cl:    0.000000
   1 Cl:   -0.000000
Sum of atomic charges:   -0.0000000

LOEWDIN ATOMIC CHARGES
----------------------
   0 Cl:    0.000000
   1 Cl:   -0.000000

  Mayer bond orders larger than 0.100000
B(  0-Cl,  1-Cl) :   1.0032

FINAL SINGLE POINT ENERGY      -920.251705367601

DIPOLE MOMENT
-------------
                                X             Y             Z
Electronic contribution:     -0.00000      -0.00000       0.00000
Nuclear contribution   :      0.00000       0.00000       0.00000
                        -----------------------------------------
Total Dipole Moment    :     -0.00000      -0.00000       0.00000
                        -----------------------------------------
Magnitude (a.u.)       :      0.00000
Magnitude (Debye)      :      0.00000

Rotational constants in cm-1:     0.000000     0.226737     0.226737
Rotational constants in MHz :     0.000000  6797.405627  6797.405627

                             ****ORCA TERMINATED NORMALLY****
TOTAL RUN TIME: 0 days 0 hours 0 minutes 3 seconds 929 msec
