                         Program Version 4.2.0 -  RELEASE  -
|  1> #
|  2> # 048 TPSS-D3BJ/Def2-TZVPPD
|  3> #
|  4> ! tpss d3bj def2-tzvppd def2/j grid4 nofinalgrid
|  5>
|  6> *xyz 0 1
|  7> O          0.75742       -0.00510        0.75514
|  8> H         -1.01794        1.02757        1.02184
|  9> H         -0.96093       -0.60735        1.74144
| 10> C         -0.64191        0.00049        0.87802
| 11> H          0.38038        0.00572       -2.17342
| 12> H          0.12624       -0.00672       -2.88156
| 13> Al         2.47079       -0.00043        0.68709
| 14> H         -1.11404       -0.41418       -0.02857
| 15> *
| 16>
| 17> %maxcore 5000
| 18>
| 19> %pal
| 20> nprocs = 24
| 21> end
| 22>
| 23>
| 24>                          ****END OF INPUT****

CARTESIAN COORDINATES (ANGSTROEM)
---------------------------------
  O      0.757420   -0.005100    0.755140
  H     -1.017940    1.027570    1.021840
  H     -0.960930   -0.607350    1.741440
  C     -0.641910    0.000490    0.878020
  H      0.380380    0.005720   -2.173420
  H      0.126240   -0.006720   -2.881560
  Al     2.470790   -0.000430    0.687090
  H     -1.114040   -0.414180   -0.028570

 Total Charge           Charge          ....    0
 Multiplicity           Mult            ....    1
 Number of Electrons    NEL             ....   32
 Basis Dimension        Dim             ....  210

ORBITAL ENERGIES
----------------

  NO   OCC          E(Eh)            E(eV)
   0   2.0000     -55.611582     -1513.2681
   1   2.0000     -18.873369      -513.5705
   2   2.0000     -10.035868      -273.0899
   3   2.0000      -3.973818      -108.1331
   4   2.0000      -2.543820       -69.2209
   5   2.0000      -2.543690       -69.2173
   6   2.0000      -2.540432       -69.1287
   7   2.0000      -0.919572       -25.0228
   8   2.0000      -0.624335       -16.9890
   9   2.0000      -0.437393       -11.9021
  10   2.0000      -0.403962       -10.9924
  11   2.0000      -0.399982       -10.8841
  12   2.0000      -0.386262       -10.5107
  13   2.0000      -0.251241        -6.8366
  14   2.0000      -0.250785        -6.8242
  15   2.0000      -0.213995        -5.8231
  16   0.0000      -0.056346        -1.5332
  17   0.0000      -0.056189        -1.5290
  18   0.0000      -0.001786        -0.0486
  19   0.0000       0.010578         0.2879
  20   0.0000       0.024656         0.6709

MULLIKEN ATOMIC CHARGES
-----------------------
   0 O :    0.261220
   1 H :    0.058911
   2 H :    0.060045
   3 C :    0.096076
   4 H :   -0.073737
   5 H :    0.070784
   6 Al:   -0.538896
   7 H :    0.065598
Sum of atomic charges:   -0.0000000

LOEWDIN ATOMIC CHARGES
----------------------
   0 O :   -0.517742
   1 H :   -0.003504
   2 H :   -0.004718
   3 C :   -0.004154
   4 H :    0.006319
   5 H :    0.035995
   6 Al:    0.502811
   7 H :   -0.015008

  Mayer bond orders larger than 0.100000
B(  0-O ,  3-C ) :   0.6774 B(  0-O ,  6-Al) :  -0.6784 B(  1-H ,  3-C ) :   0.9967
B(  2-H ,  3-C ) :   1.0035 B(  3-C ,  7-H ) :   0.9999 B(  4-H ,  5-H ) :   0.9849

Dispersion correction           -0.005417983
FINAL SINGLE POINT ENERGY      -358.865360442997

DIPOLE MOMENT
-------------
                                X             Y             Z
Electronic contribution:      8.62296      -0.00612       5.32036
Nuclear contribution   :     -8.98536       0.01025      -5.24566
                        -----------------------------------------
Total Dipole Moment    :     -0.36240       0.00413       0.07471
                        -----------------------------------------
Magnitude (a.u.)       :      0.37004
Magnitude (Debye)      :      0.94057

Rotational constants in cm-1:     0.678137     0.159402     0.132325
Rotational constants in MHz : 20330.024381  4778.738837  3967.007595

                             ****ORCA TERMINATED NORMALLY****
TOTAL RUN TIME: 0 days 0 hours 0 minutes 3 seconds 639 msec
