                         Program Version 4.2.0 -  RELEASE  -
|  1> #
|  2> # 050 TPSS-D3BJ/Def2-TZVPPD
|  3> #
|  4> ! tpss d3bj def2-tzvppd def2/j grid4 nofinalgrid
|  5>
|  6> *xyz 0 1
|  7> H          0.20940       -0.52586       -2.49943
|  8> Cl        -0.00687       -1.57667        0.66924
|  9> H         -0.20240       -1.10325       -2.75186
| 10> H         -1.52841        1.31136        0.17964
| 11> H          1.18008        1.27520       -0.42375
| 12> H          0.01798       -1.62546        1.96923
| 13> Al        -0.00655        1.11839        0.64244
| 14> H          0.33679        1.12629        2.21448
| 15> *
| 16>
| 17> %maxcore 5000
| 18>
| 19> %pal
| 20> nprocs = 24
| 21> end
| 22>
| 23>
| 24>                          ****END OF INPUT****

CARTESIAN COORDINATES (ANGSTROEM)
---------------------------------
  H      0.209400   -0.525860   -2.499430
  Cl    -0.006870   -1.576670    0.669240
  H     -0.202400   -1.103250   -2.751860
  H     -1.528410    1.311360    0.179640
  H      1.180080    1.275200   -0.423750
  H      0.017980   -1.625460    1.969230
  Al    -0.006550    1.118390    0.642440
  H      0.336790    1.126290    2.214480

 Total Charge           Charge          ....    0
 Multiplicity           Mult            ....    1
 Number of Electrons    NEL             ....   36
 Basis Dimension        Dim             ....  201

ORBITAL ENERGIES
----------------

  NO   OCC          E(Eh)            E(eV)
   0   2.0000    -101.054283     -2749.8268
   1   2.0000     -55.598720     -1512.9181
   2   2.0000      -9.304131      -253.1783
   3   2.0000      -7.082712      -192.7304
   4   2.0000      -7.074448      -192.5055
   5   2.0000      -7.072668      -192.4571
   6   2.0000      -3.965913      -107.9180
   7   2.0000      -2.541491       -69.1575
   8   2.0000      -2.530822       -68.8672
   9   2.0000      -2.530488       -68.8581
  10   2.0000      -0.836211       -22.7545
  11   2.0000      -0.481684       -13.1073
  12   2.0000      -0.397721       -10.8225
  13   2.0000      -0.391901       -10.6642
  14   2.0000      -0.345086        -9.3903
  15   2.0000      -0.332872        -9.0579
  16   2.0000      -0.262367        -7.1394
  17   2.0000      -0.258986        -7.0474
  18   0.0000      -0.063450        -1.7266
  19   0.0000      -0.040874        -1.1122
  20   0.0000       0.007634         0.2077
  21   0.0000       0.012573         0.3421
  22   0.0000       0.022214         0.6045

MULLIKEN ATOMIC CHARGES
-----------------------
   0 H :    0.004974
   1 Cl:   -0.217865
   2 H :   -0.002041
   3 H :   -0.212016
   4 H :   -0.217599
   5 H :    0.302197
   6 Al:    0.575339
   7 H :   -0.232990
Sum of atomic charges:    0.0000000

LOEWDIN ATOMIC CHARGES
----------------------
   0 H :    0.006988
   1 Cl:    0.527051
   2 H :    0.027627
   3 H :   -0.194508
   4 H :   -0.196152
   5 H :   -0.332853
   6 Al:    0.354298
   7 H :   -0.192452

  Mayer bond orders larger than 0.100000
B(  0-H ,  2-H ) :   0.9885 B(  1-Cl,  5-H ) :   0.8935 B(  1-Cl,  6-Al) :   0.2201
B(  3-H ,  6-Al) :   0.9302 B(  4-H ,  6-Al) :   0.9247 B(  6-Al,  7-H ) :   0.8961

Dispersion correction           -0.005160569
FINAL SINGLE POINT ENERGY      -706.267788385200

DIPOLE MOMENT
-------------
                                X             Y             Z
Electronic contribution:     -0.03997      -3.64559       5.08818
Nuclear contribution   :      0.04784       2.78212      -4.67262
                        -----------------------------------------
Total Dipole Moment    :      0.00788      -0.86347       0.41556
                        -----------------------------------------
Magnitude (a.u.)       :      0.95830
Magnitude (Debye)      :      2.43580

Rotational constants in cm-1:     0.545363     0.134491     0.113645
Rotational constants in MHz : 16349.582447  4031.950699  3406.980673

                             ****ORCA TERMINATED NORMALLY****
TOTAL RUN TIME: 0 days 0 hours 0 minutes 3 seconds 583 msec
