                         Program Version 4.2.0 -  RELEASE  -
|  1> #
|  2> # 070 TPSS-D3BJ/Def2-TZVPPD
|  3> #
|  4> ! tpss d3bj def2-tzvppd def2/j grid4 nofinalgrid
|  5>
|  6> *xyz 0 1
|  7> H          0.08530       -0.02655        1.60712
|  8> H          0.90656       -0.78582       -1.39861
|  9> Be        -0.05035        0.92778       -0.02639
| 10> H          0.07901        0.71807        1.80526
| 11> F         -0.04624       -1.68577        0.17900
| 12> C         -0.00461       -0.62157       -0.79461
| 13> H         -0.11623        2.26790        0.10895
| 14> H         -0.85344       -0.79405       -1.48072
| 15> *
| 16>
| 17> %maxcore 5000
| 18>
| 19> %pal
| 20> nprocs = 24
| 21> end
| 22>
| 23>
| 24>                          ****END OF INPUT****

CARTESIAN COORDINATES (ANGSTROEM)
---------------------------------
  H      0.085300   -0.026550    1.607120
  H      0.906560   -0.785820   -1.398610
  Be    -0.050350    0.927780   -0.026390
  H      0.079010    0.718070    1.805260
  F     -0.046240   -1.685770    0.179000
  C     -0.004610   -0.621570   -0.794610
  H     -0.116230    2.267900    0.108950
  H     -0.853440   -0.794050   -1.480720

 Total Charge           Charge          ....    0
 Multiplicity           Mult            ....    1
 Number of Electrons    NEL             ....   24
 Basis Dimension        Dim             ....  184

ORBITAL ENERGIES
----------------

  NO   OCC          E(Eh)            E(eV)
   0   2.0000     -24.382274      -663.4754
   1   2.0000     -10.027201      -272.8540
   2   2.0000      -3.897222      -106.0488
   3   2.0000      -1.089169       -29.6378
   4   2.0000      -0.616013       -16.7626
   5   2.0000      -0.481809       -13.1107
   6   2.0000      -0.419511       -11.4155
   7   2.0000      -0.410752       -11.1771
   8   2.0000      -0.370142       -10.0721
   9   2.0000      -0.292211        -7.9515
  10   2.0000      -0.290567        -7.9067
  11   2.0000      -0.245722        -6.6864
  12   0.0000      -0.048709        -1.3254
  13   0.0000      -0.018594        -0.5060
  14   0.0000      -0.002042        -0.0556
  15   0.0000       0.012825         0.3490
  16   0.0000       0.021895         0.5958

MULLIKEN ATOMIC CHARGES
-----------------------
   0 H :    0.097740
   1 H :   -0.050202
   2 Be:    0.062626
   3 H :   -0.027518
   4 F :   -0.317712
   5 C :    0.357563
   6 H :   -0.078796
   7 H :   -0.043701
Sum of atomic charges:    0.0000000

LOEWDIN ATOMIC CHARGES
----------------------
   0 H :    0.076196
   1 H :   -0.053958
   2 Be:    0.363838
   3 H :    0.071600
   4 F :   -0.169505
   5 C :   -0.124280
   6 H :   -0.109273
   7 H :   -0.054618

  Mayer bond orders larger than 0.100000
B(  0-H ,  2-Be) :   0.1660 B(  0-H ,  3-H ) :   0.8694 B(  1-H ,  5-C ) :   1.0143
B(  2-Be,  3-H ) :   0.1872 B(  2-Be,  5-C ) :   1.0557 B(  2-Be,  6-H ) :   0.8732
B(  4-F ,  5-C ) :   0.7386 B(  5-C ,  7-H ) :   1.0156

Dispersion correction           -0.004446619
FINAL SINGLE POINT ENERGY      -155.735982279602

DIPOLE MOMENT
-------------
                                X             Y             Z
Electronic contribution:     -0.19952      -3.59589      -0.71285
Nuclear contribution   :      0.26588       3.83479       0.81982
                        -----------------------------------------
Total Dipole Moment    :      0.06635       0.23891       0.10698
                        -----------------------------------------
Magnitude (a.u.)       :      0.27004
Magnitude (Debye)      :      0.68640

Rotational constants in cm-1:     0.879452     0.304630     0.236523
Rotational constants in MHz : 26365.310047  9132.583609  7090.795310

                             ****ORCA TERMINATED NORMALLY****
TOTAL RUN TIME: 0 days 0 hours 0 minutes 3 seconds 175 msec
