                         Program Version 4.2.0 -  RELEASE  -
|  1> #
|  2> # 076 TPSS-D3BJ/Def2-TZVPPD
|  3> #
|  4> ! tpss d3bj def2-tzvppd def2/j grid4 nofinalgrid
|  5>
|  6> *xyz 0 1
|  7> H         -0.10732        2.90062       -0.02721
|  8> H          0.35760       -1.90152        0.97790
|  9> Li        -0.27775        0.78724       -0.00029
| 10> H          0.84572       -0.46906       -0.34423
| 11> H         -1.10236       -0.68915        0.32212
| 12> B         -0.04346       -1.30148        0.00006
| 13> H          0.61490        2.68175        0.02928
| 14> H         -0.28734       -2.00840       -0.95762
| 15> *
| 16>
| 17> %maxcore 5000
| 18>
| 19> %pal
| 20> nprocs = 24
| 21> end
| 22>
| 23>
| 24>                          ****END OF INPUT****

CARTESIAN COORDINATES (ANGSTROEM)
---------------------------------
  H     -0.107320    2.900620   -0.027210
  H      0.357600   -1.901520    0.977900
  Li    -0.277750    0.787240   -0.000290
  H      0.845720   -0.469060   -0.344230
  H     -1.102360   -0.689150    0.322120
  B     -0.043460   -1.301480    0.000060
  H      0.614900    2.681750    0.029280
  H     -0.287340   -2.008400   -0.957620

 Total Charge           Charge          ....    0
 Multiplicity           Mult            ....    1
 Number of Electrons    NEL             ....   14
 Basis Dimension        Dim             ....  161

ORBITAL ENERGIES
----------------

  NO   OCC          E(Eh)            E(eV)
   0   2.0000      -6.499025      -176.8475
   1   2.0000      -1.925747       -52.4022
   2   2.0000      -0.489483       -13.3195
   3   2.0000      -0.440071       -11.9749
   4   2.0000      -0.267120        -7.2687
   5   2.0000      -0.249994        -6.8027
   6   2.0000      -0.236889        -6.4461
   7   0.0000      -0.051061        -1.3895
   8   0.0000      -0.026605        -0.7240
   9   0.0000      -0.021465        -0.5841
  10   0.0000      -0.001836        -0.0500
  11   0.0000       0.035052         0.9538

MULLIKEN ATOMIC CHARGES
-----------------------
   0 H :    0.042434
   1 H :    0.004900
   2 Li:    0.665410
   3 H :   -0.174839
   4 H :   -0.136696
   5 B :   -0.435660
   6 H :    0.030435
   7 H :    0.004017
Sum of atomic charges:    0.0000000

LOEWDIN ATOMIC CHARGES
----------------------
   0 H :    0.096789
   1 H :   -0.072310
   2 Li:    0.334359
   3 H :   -0.086737
   4 H :   -0.080026
   5 B :   -0.213613
   6 H :    0.094000
   7 H :   -0.072460

  Mayer bond orders larger than 0.100000
B(  0-H ,  6-H ) :   0.9255 B(  1-H ,  5-B ) :   0.9690 B(  2-Li,  3-H ) :   0.1232
B(  2-Li,  4-H ) :   0.1302 B(  2-Li,  5-B ) :   0.1527 B(  3-H ,  5-B ) :   0.8734
B(  4-H ,  5-B ) :   0.8761 B(  5-B ,  7-H ) :   0.9679

Dispersion correction           -0.003917084
FINAL SINGLE POINT ENERGY       -35.998205506743

DIPOLE MOMENT
-------------
                                X             Y             Z
Electronic contribution:     -1.16916       0.75115      -0.00113
Nuclear contribution   :      0.92718       2.12684       0.00062
                        -----------------------------------------
Total Dipole Moment    :     -0.24199       2.87798      -0.00050
                        -----------------------------------------
Magnitude (a.u.)       :      2.88814
Magnitude (Debye)      :      7.34107

Rotational constants in cm-1:     3.344864     0.365518     0.359194
Rotational constants in MHz : 100276.510227 10957.945080 10768.366475

                             ****ORCA TERMINATED NORMALLY****
TOTAL RUN TIME: 0 days 0 hours 0 minutes 3 seconds 554 msec
