                         Program Version 4.2.0 -  RELEASE  -
|  1> #
|  2> # 088 TPSS-D3BJ/Def2-TZVPPD
|  3> #
|  4> ! tpss d3bj def2-tzvppd def2/j grid4 nofinalgrid
|  5>
|  6> *xyz 0 1
|  7> C          0.81376        0.10372        0.34640
|  8> H          0.87654        0.17194        1.44377
|  9> H          1.67271        0.57624       -0.15360
| 10> N          0.56076       -1.37061        0.00951
| 11> C         -0.53618        0.54868       -0.29052
| 12> S         -2.13839       -0.48145        0.15104
| 13> H         -0.69523        1.33853       -1.02043
| 14> C         -0.55397       -0.88705       -0.48618
| 15> *
| 16>
| 17> %maxcore 5000
| 18>
| 19> %pal
| 20> nprocs = 24
| 21> end
| 22>
| 23>
| 24>                          ****END OF INPUT****

CARTESIAN COORDINATES (ANGSTROEM)
---------------------------------
  C      0.813760    0.103720    0.346400
  H      0.876540    0.171940    1.443770
  H      1.672710    0.576240   -0.153600
  N      0.560760   -1.370610    0.009510
  C     -0.536180    0.548680   -0.290520
  S     -2.138390   -0.481450    0.151040
  H     -0.695230    1.338530   -1.020430
  C     -0.553970   -0.887050   -0.486180

 Total Charge           Charge          ....    0
 Multiplicity           Mult            ....    1
 Number of Electrons    NEL             ....   44
 Basis Dimension        Dim             ....  250

ORBITAL ENERGIES
----------------

  NO   OCC          E(Eh)            E(eV)
   0   2.0000     -88.397073     -2405.4066
   1   2.0000     -14.112938      -384.0326
   2   2.0000     -10.082815      -274.3673
   3   2.0000     -10.065745      -273.9028
   4   2.0000     -10.051602      -273.5180
   5   2.0000      -7.775129      -211.5720
   6   2.0000      -5.755785      -156.6229
   7   2.0000      -5.753933      -156.5725
   8   2.0000      -5.744458      -156.3147
   9   2.0000      -0.929759       -25.3000
  10   2.0000      -0.762399       -20.7459
  11   2.0000      -0.664487       -18.0816
  12   2.0000      -0.577866       -15.7245
  13   2.0000      -0.489794       -13.3280
  14   2.0000      -0.448513       -12.2046
  15   2.0000      -0.429172       -11.6784
  16   2.0000      -0.412376       -11.2213
  17   2.0000      -0.339590        -9.2407
  18   2.0000      -0.321528        -8.7492
  19   2.0000      -0.279716        -7.6114
  20   2.0000      -0.230060        -6.2602
  21   2.0000      -0.211024        -5.7423
  22   0.0000      -0.125848        -3.4245
  23   0.0000      -0.070189        -1.9099
  24   0.0000      -0.006966        -0.1896
  25   0.0000       0.002153         0.0586
  26   0.0000       0.015059         0.4098

MULLIKEN ATOMIC CHARGES
-----------------------
   0 C :    0.498854
   1 H :   -0.051548
   2 H :   -0.032766
   3 N :   -0.553917
   4 C :    0.037230
   5 S :   -0.334818
   6 H :    0.072301
   7 C :    0.364665
Sum of atomic charges:   -0.0000000

LOEWDIN ATOMIC CHARGES
----------------------
   0 C :   -0.027236
   1 H :    0.022344
   2 H :    0.017176
   3 N :    0.083582
   4 C :   -0.260657
   5 S :    0.848531
   6 H :   -0.021272
   7 C :   -0.662468

  Mayer bond orders larger than 0.100000
B(  0-C ,  1-H ) :   0.9105 B(  0-C ,  2-H ) :   0.9954 B(  0-C ,  3-N ) :   0.6486
B(  0-C ,  4-C ) :   0.8839 B(  0-C ,  7-C ) :   0.2589 B(  3-N ,  4-C ) :   0.1952
B(  3-N ,  5-S ) :   0.1315 B(  3-N ,  7-C ) :   1.2813 B(  4-C ,  5-S ) :   0.8213
B(  4-C ,  6-H ) :   1.0143 B(  4-C ,  7-C ) :   0.9057 B(  5-S ,  7-C ) :   0.9258

Dispersion correction           -0.008556691
FINAL SINGLE POINT ENERGY      -569.041708637972

DIPOLE MOMENT
-------------
                                X             Y             Z
Electronic contribution:     -3.78885      -2.10131      -0.36014
Nuclear contribution   :      3.84230       3.12311       0.24615
                        -----------------------------------------
Total Dipole Moment    :      0.05344       1.02181      -0.11399
                        -----------------------------------------
Magnitude (a.u.)       :      1.02953
Magnitude (Debye)      :      2.61687

Rotational constants in cm-1:     0.386346     0.125803     0.105869
Rotational constants in MHz : 11582.371237  3771.469962  3173.859054

                             ****ORCA TERMINATED NORMALLY****
TOTAL RUN TIME: 0 days 0 hours 0 minutes 4 seconds 804 msec
