                         Program Version 4.2.0 -  RELEASE  -
|  1> #
|  2> # 096 TPSS-D3BJ/Def2-TZVPPD
|  3> #
|  4> ! tpss d3bj def2-tzvppd def2/j grid4 nofinalgrid
|  5>
|  6> *xyz 0 1
|  7> H          0.74842        1.26851        0.59882
|  8> C         -0.16355        0.74665        0.30940
|  9> H          0.74849       -1.26857        0.59856
| 10> C         -0.16356       -0.74663        0.30935
| 11> H          1.21141        0.00004       -1.60315
| 12> H         -1.08115        1.25625        0.60788
| 13> P         -0.21890        0.00004       -1.42860
| 14> H         -1.08115       -1.25629        0.60773
| 15> *
| 16>
| 17> %maxcore 5000
| 18>
| 19> %pal
| 20> nprocs = 24
| 21> end
| 22>
| 23>
| 24>                          ****END OF INPUT****

CARTESIAN COORDINATES (ANGSTROEM)
---------------------------------
  H      0.748420    1.268510    0.598820
  C     -0.163550    0.746650    0.309400
  H      0.748490   -1.268570    0.598560
  C     -0.163560   -0.746630    0.309350
  H      1.211410    0.000040   -1.603150
  H     -1.081150    1.256250    0.607880
  P     -0.218900    0.000040   -1.428600
  H     -1.081150   -1.256290    0.607730

 Total Charge           Charge          ....    0
 Multiplicity           Mult            ....    1
 Number of Electrons    NEL             ....   32
 Basis Dimension        Dim             ....  207

ORBITAL ENERGIES
----------------

  NO   OCC          E(Eh)            E(eV)
   0   2.0000     -76.580213     -2083.8535
   1   2.0000     -10.006899      -272.3016
   2   2.0000     -10.006739      -272.2972
   3   2.0000      -6.355406      -172.9394
   4   2.0000      -4.533420      -123.3606
   5   2.0000      -4.531402      -123.3057
   6   2.0000      -4.530481      -123.2806
   7   2.0000      -0.752958       -20.4890
   8   2.0000      -0.558687       -15.2027
   9   2.0000      -0.522961       -14.2305
  10   2.0000      -0.441195       -12.0055
  11   2.0000      -0.395900       -10.7730
  12   2.0000      -0.339588        -9.2407
  13   2.0000      -0.300564        -8.1788
  14   2.0000      -0.240133        -6.5343
  15   2.0000      -0.239677        -6.5220
  16   0.0000      -0.022726        -0.6184
  17   0.0000      -0.017188        -0.4677
  18   0.0000       0.014263         0.3881
  19   0.0000       0.025789         0.7017
  20   0.0000       0.037218         1.0128

MULLIKEN ATOMIC CHARGES
-----------------------
   0 H :    0.065511
   1 C :   -0.017330
   2 H :    0.065483
   3 C :   -0.017280
   4 H :    0.014949
   5 H :    0.044145
   6 P :   -0.199629
   7 H :    0.044150
Sum of atomic charges:    0.0000000

LOEWDIN ATOMIC CHARGES
----------------------
   0 H :   -0.042319
   1 C :   -0.255802
   2 H :   -0.042286
   3 C :   -0.255830
   4 H :   -0.180585
   5 H :   -0.047922
   6 P :    0.872677
   7 H :   -0.047933

  Mayer bond orders larger than 0.100000
B(  0-H ,  1-C ) :   0.9951 B(  1-C ,  3-C ) :   0.8589 B(  1-C ,  5-H ) :   1.0267
B(  1-C ,  6-P ) :   0.8742 B(  2-H ,  3-C ) :   0.9951 B(  3-C ,  6-P ) :   0.8742
B(  3-C ,  7-H ) :   1.0267 B(  4-H ,  6-P ) :   0.9695

Dispersion correction           -0.006716243
FINAL SINGLE POINT ENERGY      -420.633629612561

DIPOLE MOMENT
-------------
                                X             Y             Z
Electronic contribution:     -1.18119       0.00012      -3.85052
Nuclear contribution   :      1.35041      -0.00018       4.31337
                        -----------------------------------------
Total Dipole Moment    :      0.16922      -0.00006       0.46285
                        -----------------------------------------
Magnitude (a.u.)       :      0.49281
Magnitude (Debye)      :      1.25263

Rotational constants in cm-1:     0.669213     0.315945     0.248635
Rotational constants in MHz : 20062.492743  9471.799383  7453.892881

                             ****ORCA TERMINATED NORMALLY****
TOTAL RUN TIME: 0 days 0 hours 0 minutes 4 seconds 150 msec
