                         Program Version 4.2.0 -  RELEASE  -
|  1> #
|  2> # 104 TPSS-D3BJ/Def2-TZVPPD
|  3> #
|  4> ! tpss d3bj def2-tzvppd def2/j grid4 nofinalgrid
|  5>
|  6> *xyz 0 2
|  7> C          0.18239        0.81792       -0.17289
|  8> H         -2.32613        0.04031        1.01174
|  9> H          2.24798        0.73105       -0.01871
| 10> C          1.34005        0.10819       -0.12066
| 11> H          0.11379        1.91914       -0.21133
| 12> Si        -1.43329       -0.14152       -0.20061
| 13> H         -1.02937       -1.64029       -0.13873
| 14> Li         0.90457       -1.83481       -0.14881
| 15> *
| 16>
| 17> %maxcore 5000
| 18>
| 19> %pal
| 20> nprocs = 24
| 21> end
| 22>
| 23>
| 24>                          ****END OF INPUT****

CARTESIAN COORDINATES (ANGSTROEM)
---------------------------------
  C      0.182390    0.817920   -0.172890
  H     -2.326130    0.040310    1.011740
  H      2.247980    0.731050   -0.018710
  C      1.340050    0.108190   -0.120660
  H      0.113790    1.919140   -0.211330
  Si    -1.433290   -0.141520   -0.200610
  H     -1.029370   -1.640290   -0.138730
  Li     0.904570   -1.834810   -0.148810

 Total Charge           Charge          ....    0
 Multiplicity           Mult            ....    2
 Number of Electrons    NEL             ....   33
 Basis Dimension        Dim             ....  212

ORBITAL ENERGIES
----------------
                 SPIN UP ORBITALS
  NO   OCC          E(Eh)            E(eV)
   0   1.0000     -65.665022     -1786.8361
   1   1.0000      -9.963531      -271.1215
   2   1.0000      -9.941041      -270.5095
   3   1.0000      -5.100374      -138.7882
   4   1.0000      -3.478065       -94.6430
   5   1.0000      -3.474633       -94.5496
   6   1.0000      -3.471270       -94.4581
   7   1.0000      -1.898294       -51.6552
   8   1.0000      -0.660719       -17.9791
   9   1.0000      -0.494237       -13.4489
  10   1.0000      -0.438287       -11.9264
  11   1.0000      -0.369119       -10.0443
  12   1.0000      -0.314554        -8.5594
  13   1.0000      -0.280737        -7.6392
  14   1.0000      -0.235582        -6.4105
  15   1.0000      -0.184124        -5.0103
  16   1.0000      -0.159533        -4.3411
  17   0.0000      -0.049191        -1.3386
  18   0.0000      -0.027919        -0.7597
  19   0.0000      -0.003673        -0.0999
  20   0.0000       0.001883         0.0512
  21   0.0000       0.002997         0.0815

                 SPIN DOWN ORBITALS
  NO   OCC          E(Eh)            E(eV)
   0   1.0000     -65.662424     -1786.7654
   1   1.0000      -9.962810      -271.1018
   2   1.0000      -9.938414      -270.4380
   3   1.0000      -5.097752      -138.7169
   4   1.0000      -3.473330       -94.5141
   5   1.0000      -3.470709       -94.4428
   6   1.0000      -3.469458       -94.4088
   7   1.0000      -1.898279       -51.6548
   8   1.0000      -0.656375       -17.8609
   9   1.0000      -0.484571       -13.1859
  10   1.0000      -0.431352       -11.7377
  11   1.0000      -0.364323        -9.9137
  12   1.0000      -0.309228        -8.4145
  13   1.0000      -0.275350        -7.4926
  14   1.0000      -0.223231        -6.0744
  15   1.0000      -0.172422        -4.6919
  16   0.0000      -0.106480        -2.8975
  17   0.0000      -0.047681        -1.2975
  18   0.0000      -0.023735        -0.6459
  19   0.0000       0.001710         0.0465
  20   0.0000       0.009122         0.2482

MULLIKEN ATOMIC CHARGES AND SPIN POPULATIONS
--------------------------------------------
   0 C :    0.052391   -0.008873
   1 H :   -0.070688    0.042312
   2 H :   -0.001619   -0.003158
   3 C :   -0.809411    0.199608
   4 H :    0.156046    0.005884
   5 Si:    0.163726    0.746597
   6 H :   -0.267047    0.018168
   7 Li:    0.776601   -0.000538
Sum of atomic charges         :    0.0000000

LOEWDIN ATOMIC CHARGES AND SPIN POPULATIONS
-------------------------------------------
   0 C :   -0.421191    0.097484
   1 H :   -0.172302    0.074523
   2 H :   -0.124182    0.021741
   3 C :   -0.138171    0.131447
   4 H :   -0.088116    0.002034
   5 Si:    0.706033    0.601727
   6 H :   -0.157043    0.059983
   7 Li:    0.394971    0.011060

  Mayer bond orders larger than 0.100000
B(  0-C ,  3-C ) :   1.4702 B(  0-C ,  4-H ) :   0.9478 B(  0-C ,  5-Si) :   1.1109
B(  1-H ,  5-Si) :   0.9661 B(  2-H ,  3-C ) :   1.2332 B(  3-C ,  5-Si) :   0.3011
B(  3-C ,  6-H ) :   0.1170 B(  3-C ,  7-Li) :   0.2572 B(  5-Si,  6-H ) :   0.7809
B(  6-H ,  7-Li) :   0.1151

Dispersion correction           -0.008169753
FINAL SINGLE POINT ENERGY      -375.630115429831

DIPOLE MOMENT
-------------
                                X             Y             Z
Electronic contribution:      1.24124      -4.36095      -1.16986
Nuclear contribution   :     -0.90522       2.81558       1.17165
                        -----------------------------------------
Total Dipole Moment    :      0.33603      -1.54538       0.00179
                        -----------------------------------------
Magnitude (a.u.)       :      1.58149
Magnitude (Debye)      :      4.01982

Rotational constants in cm-1:     0.419182     0.179284     0.128388
Rotational constants in MHz : 12566.751634  5374.809128  3848.967152

                             ****ORCA TERMINATED NORMALLY****
TOTAL RUN TIME: 0 days 0 hours 0 minutes 4 seconds 686 msec
