                         Program Version 4.2.0 -  RELEASE  -
|  1> #
|  2> # 111 TPSS-D3BJ/Def2-TZVPPD
|  3> #
|  4> ! tpss d3bj def2-tzvppd def2/j grid4 nofinalgrid
|  5>
|  6> *xyz 0 2
|  7> N          0.85218        0.06581        1.54293
|  8> C         -0.45432        0.04016        1.51127
|  9> H          0.51389       -1.04630       -1.15231
| 10> H         -1.27128       -0.21181        2.19239
| 11> H          0.93075        0.61434       -1.62997
| 12> C          0.02563        0.43731        0.29642
| 13> C          0.17679        0.00817       -1.10677
| 14> H         -0.77364        0.09232       -1.65395
| 15> *
| 16>
| 17> %maxcore 5000
| 18>
| 19> %pal
| 20> nprocs = 24
| 21> end
| 22>
| 23>
| 24>                          ****END OF INPUT****

CARTESIAN COORDINATES (ANGSTROEM)
---------------------------------
  N      0.852180    0.065810    1.542930
  C     -0.454320    0.040160    1.511270
  H      0.513890   -1.046300   -1.152310
  H     -1.271280   -0.211810    2.192390
  H      0.930750    0.614340   -1.629970
  C      0.025630    0.437310    0.296420
  C      0.176790    0.008170   -1.106770
  H     -0.773640    0.092320   -1.653950

 Total Charge           Charge          ....    0
 Multiplicity           Mult            ....    2
 Number of Electrons    NEL             ....   29
 Basis Dimension        Dim             ....  216

ORBITAL ENERGIES
----------------
                 SPIN UP ORBITALS
  NO   OCC          E(Eh)            E(eV)
   0   1.0000     -14.125022      -384.3614
   1   1.0000     -10.056850      -273.6608
   2   1.0000     -10.037254      -273.1276
   3   1.0000     -10.007431      -272.3160
   4   1.0000      -0.926350       -25.2073
   5   1.0000      -0.698159       -18.9979
   6   1.0000      -0.556798       -15.1513
   7   1.0000      -0.531552       -14.4643
   8   1.0000      -0.423656       -11.5283
   9   1.0000      -0.410206       -11.1623
  10   1.0000      -0.389292       -10.5932
  11   1.0000      -0.351895        -9.5755
  12   1.0000      -0.318626        -8.6702
  13   1.0000      -0.254023        -6.9123
  14   1.0000      -0.155289        -4.2256
  15   0.0000      -0.069254        -1.8845
  16   0.0000       0.003069         0.0835
  17   0.0000       0.018550         0.5048
  18   0.0000       0.042532         1.1573
  19   0.0000       0.048882         1.3302

                 SPIN DOWN ORBITALS
  NO   OCC          E(Eh)            E(eV)
   0   1.0000     -14.115879      -384.1126
   1   1.0000     -10.059108      -273.7223
   2   1.0000     -10.025488      -272.8074
   3   1.0000     -10.007244      -272.3110
   4   1.0000      -0.915729       -24.9183
   5   1.0000      -0.691741       -18.8232
   6   1.0000      -0.554696       -15.0941
   7   1.0000      -0.516870       -14.0647
   8   1.0000      -0.417151       -11.3513
   9   1.0000      -0.391870       -10.6633
  10   1.0000      -0.385592       -10.4925
  11   1.0000      -0.334108        -9.0916
  12   1.0000      -0.311952        -8.4886
  13   1.0000      -0.244917        -6.6645
  14   0.0000      -0.079907        -2.1744
  15   0.0000      -0.050874        -1.3843
  16   0.0000       0.006463         0.1759
  17   0.0000       0.018967         0.5161
  18   0.0000       0.049626         1.3504

MULLIKEN ATOMIC CHARGES AND SPIN POPULATIONS
--------------------------------------------
   0 N :   -0.416806    0.394428
   1 C :    0.081766   -0.089312
   2 H :    0.063300    0.037688
   3 H :    0.031011    0.014552
   4 H :    0.022218    0.023077
   5 C :    0.171784    0.631063
   6 C :   -0.008770   -0.005963
   7 H :    0.055497   -0.005534
Sum of atomic charges         :   -0.0000000

LOEWDIN ATOMIC CHARGES AND SPIN POPULATIONS
-------------------------------------------
   0 N :    0.142614    0.360091
   1 C :   -0.057111    0.013843
   2 H :   -0.005702    0.029543
   3 H :    0.002279   -0.010245
   4 H :   -0.015789    0.008938
   5 C :   -0.165767    0.510912
   6 C :    0.115812    0.087388
   7 H :   -0.016336   -0.000469

  Mayer bond orders larger than 0.100000
B(  0-N ,  1-C ) :   1.6889 B(  0-N ,  5-C ) :   0.5889 B(  1-C ,  3-H ) :   0.9571
B(  1-C ,  5-C ) :   1.3215 B(  2-H ,  6-C ) :   0.9348 B(  4-H ,  6-C ) :   0.9777
B(  5-C ,  6-C ) :   0.9805 B(  6-C ,  7-H ) :   0.9775

Dispersion correction           -0.005796128
FINAL SINGLE POINT ENERGY      -171.439350575131

DIPOLE MOMENT
-------------
                                X             Y             Z
Electronic contribution:      0.28740       0.72195       3.67695
Nuclear contribution   :     -1.13576      -0.94785      -4.02666
                        -----------------------------------------
Total Dipole Moment    :     -0.84836      -0.22589      -0.34971
                        -----------------------------------------
Magnitude (a.u.)       :      0.94501
Magnitude (Debye)      :      2.40203

Rotational constants in cm-1:     0.919406     0.218621     0.189338
Rotational constants in MHz : 27563.112958  6554.079895  5676.208610

                             ****ORCA TERMINATED NORMALLY****
TOTAL RUN TIME: 0 days 0 hours 0 minutes 4 seconds 681 msec
