                         Program Version 4.2.0 -  RELEASE  -
|  1> #
|  2> # 123 TPSS-D3BJ/Def2-TZVPPD
|  3> #
|  4> ! tpss d3bj def2-tzvppd def2/j grid4 nofinalgrid
|  5>
|  6> *xyz 0 2
|  7> H         -0.05566       -1.00378        1.35004
|  8> H         -0.85108        0.57288        1.07820
|  9> C          0.00090       -0.05557        0.78344
| 10> H         -0.84105       -0.66759       -1.01558
| 11> H          0.91403        0.47335        1.08996
| 12> H          0.01842        1.61333       -1.60506
| 13> H          0.81267       -0.72579       -1.00914
| 14> N          0.00176       -0.20682       -0.67186
| 15> *
| 16>
| 17> %maxcore 5000
| 18>
| 19> %pal
| 20> nprocs = 24
| 21> end
| 22>
| 23>
| 24>                          ****END OF INPUT****

CARTESIAN COORDINATES (ANGSTROEM)
---------------------------------
  H     -0.055660   -1.003780    1.350040
  H     -0.851080    0.572880    1.078200
  C      0.000900   -0.055570    0.783440
  H     -0.841050   -0.667590   -1.015580
  H      0.914030    0.473350    1.089960
  H      0.018420    1.613330   -1.605060
  H      0.812670   -0.725790   -1.009140
  N      0.001760   -0.206820   -0.671860

 Total Charge           Charge          ....    0
 Multiplicity           Mult            ....    2
 Number of Electrons    NEL             ....   19
 Basis Dimension        Dim             ....  176

ORBITAL ENERGIES
----------------
                 SPIN UP ORBITALS
  NO   OCC          E(Eh)            E(eV)
   0   1.0000     -14.112979      -384.0337
   1   1.0000     -10.017745      -272.5967
   2   1.0000      -0.836159       -22.7531
   3   1.0000      -0.624413       -16.9911
   4   1.0000      -0.467797       -12.7294
   5   1.0000      -0.417021       -11.3477
   6   1.0000      -0.383301       -10.4302
   7   1.0000      -0.345490        -9.4012
   8   1.0000      -0.270956        -7.3731
   9   1.0000      -0.164596        -4.4789
  10   0.0000      -0.007130        -0.1940
  11   0.0000       0.016489         0.4487
  12   0.0000       0.043399         1.1809
  13   0.0000       0.065682         1.7873
  14   0.0000       0.078927         2.1477

                 SPIN DOWN ORBITALS
  NO   OCC          E(Eh)            E(eV)
   0   1.0000     -14.108422      -383.9097
   1   1.0000     -10.017825      -272.5989
   2   1.0000      -0.831311       -22.6211
   3   1.0000      -0.623077       -16.9548
   4   1.0000      -0.465838       -12.6761
   5   1.0000      -0.414224       -11.2716
   6   1.0000      -0.379940       -10.3387
   7   1.0000      -0.344952        -9.3866
   8   1.0000      -0.231754        -6.3063
   9   0.0000      -0.065968        -1.7951
  10   0.0000      -0.000648        -0.0176
  11   0.0000       0.019296         0.5251
  12   0.0000       0.046435         1.2635
  13   0.0000       0.067822         1.8455

MULLIKEN ATOMIC CHARGES AND SPIN POPULATIONS
--------------------------------------------
   0 H :    0.104311    0.014534
   1 H :    0.070780   -0.012639
   2 C :   -0.043408    0.015336
   3 H :    0.119964   -0.016969
   4 H :    0.068814   -0.008945
   5 H :   -0.065584    0.853030
   6 H :    0.121460   -0.018202
   7 N :   -0.376336    0.173856
Sum of atomic charges         :    0.0000000

LOEWDIN ATOMIC CHARGES AND SPIN POPULATIONS
-------------------------------------------
   0 H :   -0.020049    0.006666
   1 H :   -0.017370    0.005632
   2 C :    0.048166    0.019115
   3 H :   -0.102936    0.014929
   4 H :   -0.016339    0.004538
   5 H :    0.009828    0.733771
   6 H :   -0.101910    0.014524
   7 N :    0.200612    0.200825

  Mayer bond orders larger than 0.100000
B(  0-H ,  2-C ) :   0.9896 B(  1-H ,  2-C ) :   1.0051 B(  2-C ,  4-H ) :   1.0033
B(  2-C ,  7-N ) :   0.7974 B(  3-H ,  7-N ) :   1.0386 B(  5-H ,  7-N ) :   0.4215
B(  6-H ,  7-N ) :   1.0392

Dispersion correction           -0.004162486
FINAL SINGLE POINT ENERGY       -96.424836291641

DIPOLE MOMENT
-------------
                                X             Y             Z
Electronic contribution:     -0.00846      -1.74522       0.54956
Nuclear contribution   :     -0.00825       0.82489      -0.08847
                        -----------------------------------------
Total Dipole Moment    :     -0.01671      -0.92033       0.46109
                        -----------------------------------------
Magnitude (a.u.)       :      1.02951
Magnitude (Debye)      :      2.61681

Rotational constants in cm-1:     2.000356     0.660608     0.601270
Rotational constants in MHz : 59969.149740 19804.516397 18025.616086

                             ****ORCA TERMINATED NORMALLY****
TOTAL RUN TIME: 0 days 0 hours 0 minutes 3 seconds 509 msec
