                         Program Version 4.2.0 -  RELEASE  -
|  1> #
|  2> # 125 TPSS-D3BJ/Def2-TZVPPD
|  3> #
|  4> ! tpss d3bj def2-tzvppd def2/j grid4 nofinalgrid
|  5>
|  6> *xyz 0 1
|  7> Li        -0.48880       -0.51538       -0.00659
|  8> H         -0.55944        2.54233       -0.00436
|  9> H         -2.17580       -1.82520        0.01329
| 10> C         -0.08896        1.54088       -0.00480
| 11> H         -1.56083       -2.26841        0.00934
| 12> Cl         1.44004       -1.55839       -0.00318
| 13> H          1.87023        0.32576       -0.00203
| 14> S          1.56356        1.75840       -0.00167
| 15> *
| 16>
| 17> %maxcore 5000
| 18>
| 19> %pal
| 20> nprocs = 24
| 21> end
| 22>
| 23>
| 24>                          ****END OF INPUT****

CARTESIAN COORDINATES (ANGSTROEM)
---------------------------------
  Li    -0.488800   -0.515380   -0.006590
  H     -0.559440    2.542330   -0.004360
  H     -2.175800   -1.825200    0.013290
  C     -0.088960    1.540880   -0.004800
  H     -1.560830   -2.268410    0.009340
  Cl     1.440040   -1.558390   -0.003180
  H      1.870230    0.325760   -0.002030
  S      1.563560    1.758400   -0.001670

 Total Charge           Charge          ....    0
 Multiplicity           Mult            ....    1
 Number of Electrons    NEL             ....   46
 Basis Dimension        Dim             ....  229

ORBITAL ENERGIES
----------------

  NO   OCC          E(Eh)            E(eV)
   0   2.0000    -100.910044     -2745.9019
   1   2.0000     -88.402708     -2405.5600
   2   2.0000     -10.047324      -273.4016
   3   2.0000      -9.160736      -249.2763
   4   2.0000      -7.782939      -211.7845
   5   2.0000      -6.934189      -188.6889
   6   2.0000      -6.933098      -188.6592
   7   2.0000      -6.932316      -188.6379
   8   2.0000      -5.760475      -156.7505
   9   2.0000      -5.759906      -156.7350
  10   2.0000      -5.756755      -156.6493
  11   2.0000      -1.881448       -51.1968
  12   2.0000      -0.760111       -20.6837
  13   2.0000      -0.675905       -18.3923
  14   2.0000      -0.557734       -15.1767
  15   2.0000      -0.450572       -12.2607
  16   2.0000      -0.392254       -10.6738
  17   2.0000      -0.378205       -10.2915
  18   2.0000      -0.312047        -8.4912
  19   2.0000      -0.256146        -6.9701
  20   2.0000      -0.248228        -6.7546
  21   2.0000      -0.230531        -6.2731
  22   2.0000      -0.220348        -5.9960
  23   0.0000      -0.137772        -3.7490
  24   0.0000      -0.027625        -0.7517
  25   0.0000      -0.010875        -0.2959
  26   0.0000      -0.000583        -0.0159
  27   0.0000       0.006626         0.1803

MULLIKEN ATOMIC CHARGES
-----------------------
   0 Li:    0.747977
   1 H :   -0.008296
   2 H :   -0.073913
   3 C :   -0.217349
   4 H :    0.138588
   5 Cl:   -0.758109
   6 H :    0.336453
   7 S :   -0.165350
Sum of atomic charges:    0.0000000

LOEWDIN ATOMIC CHARGES
----------------------
   0 Li:   -0.013215
   1 H :   -0.171642
   2 H :    0.089476
   3 C :   -0.362379
   4 H :    0.063548
   5 Cl:   -0.023533
   6 H :   -0.419322
   7 S :    0.837067

  Mayer bond orders larger than 0.100000
B(  0-Li,  3-C ) :   0.1000 B(  0-Li,  5-Cl) :   0.1970 B(  1-H ,  3-C ) :   1.1659
B(  2-H ,  4-H ) :   0.9172 B(  3-C ,  7-S ) :   1.6697 B(  5-Cl,  6-H ) :   0.1307
B(  6-H ,  7-S ) :   0.6674

Dispersion correction           -0.008607367
FINAL SINGLE POINT ENERGY      -906.526781645882

DIPOLE MOMENT
-------------
                                X             Y             Z
Electronic contribution:      3.85855      -0.14602      -0.03060
Nuclear contribution   :     -5.38329       1.10078       0.02957
                        -----------------------------------------
Total Dipole Moment    :     -1.52474       0.95476      -0.00104
                        -----------------------------------------
Magnitude (a.u.)       :      1.79900
Magnitude (Debye)      :      4.57269

Rotational constants in cm-1:     0.253463     0.073830     0.057176
Rotational constants in MHz :  7598.615767  2213.361097  1714.083710

                             ****ORCA TERMINATED NORMALLY****
TOTAL RUN TIME: 0 days 0 hours 0 minutes 3 seconds 116 msec
