                         Program Version 4.2.0 -  RELEASE  -
|  1> #
|  2> # 136 TPSS-D3BJ/Def2-TZVPPD
|  3> #
|  4> ! tpss d3bj def2-tzvppd def2/j grid4 nofinalgrid
|  5>
|  6> *xyz 0 1
|  7> H         -0.64763        2.95877       -0.31431
|  8> H         -0.38809        2.29902       -0.56811
|  9> H         -0.46982        0.02713        1.23682
| 10> H         -0.44619       -2.23309       -1.25807
| 11> H          1.15514       -0.83076        1.35211
| 12> O          0.58676       -0.20120       -0.67466
| 13> C          0.25357       -0.64235        0.76247
| 14> B         -0.04374       -1.37752       -0.53625
| 15> *
| 16>
| 17> %maxcore 5000
| 18>
| 19> %pal
| 20> nprocs = 24
| 21> end
| 22>
| 23>
| 24>                          ****END OF INPUT****

CARTESIAN COORDINATES (ANGSTROEM)
---------------------------------
  H     -0.647630    2.958770   -0.314310
  H     -0.388090    2.299020   -0.568110
  H     -0.469820    0.027130    1.236820
  H     -0.446190   -2.233090   -1.258070
  H      1.155140   -0.830760    1.352110
  O      0.586760   -0.201200   -0.674660
  C      0.253570   -0.642350    0.762470
  B     -0.043740   -1.377520   -0.536250

 Total Charge           Charge          ....    0
 Multiplicity           Mult            ....    1
 Number of Electrons    NEL             ....   24
 Basis Dimension        Dim             ....  199

ORBITAL ENERGIES
----------------

  NO   OCC          E(Eh)            E(eV)
   0   2.0000     -18.917734      -514.7777
   1   2.0000     -10.033310      -273.0202
   2   2.0000      -6.622424      -180.2053
   3   2.0000      -0.980525       -26.6815
   4   2.0000      -0.615160       -16.7394
   5   2.0000      -0.459106       -12.4929
   6   2.0000      -0.429461       -11.6862
   7   2.0000      -0.420335       -11.4379
   8   2.0000      -0.381574       -10.3832
   9   2.0000      -0.348403        -9.4805
  10   2.0000      -0.290886        -7.9154
  11   2.0000      -0.261641        -7.1196
  12   0.0000      -0.050207        -1.3662
  13   0.0000       0.000835         0.0227
  14   0.0000       0.005305         0.1444
  15   0.0000       0.021089         0.5739
  16   0.0000       0.044857         1.2206

MULLIKEN ATOMIC CHARGES
-----------------------
   0 H :    0.077886
   1 H :   -0.071430
   2 H :    0.063760
   3 H :    0.029119
   4 H :    0.055094
   5 O :   -0.402933
   6 C :    0.185746
   7 B :    0.062758
Sum of atomic charges:   -0.0000000

LOEWDIN ATOMIC CHARGES
----------------------
   0 H :    0.032906
   1 H :    0.010839
   2 H :   -0.021277
   3 H :    0.014722
   4 H :   -0.016880
   5 O :    0.055097
   6 C :    0.125583
   7 B :   -0.200990

  Mayer bond orders larger than 0.100000
B(  0-H ,  1-H ) :   0.9821 B(  2-H ,  6-C ) :   0.9773 B(  3-H ,  7-B ) :   0.9959
B(  4-H ,  6-C ) :   0.9859 B(  5-O ,  6-C ) :   0.7227 B(  5-O ,  7-B ) :   1.3196
B(  6-C ,  7-B ) :   1.0401

Dispersion correction           -0.003727001
FINAL SINGLE POINT ENERGY      -141.232651021671

DIPOLE MOMENT
-------------
                                X             Y             Z
Electronic contribution:      1.54549      -5.58552      -1.08400
Nuclear contribution   :     -1.71035       5.24617       1.44476
                        -----------------------------------------
Total Dipole Moment    :     -0.16486      -0.33935       0.36076
                        -----------------------------------------
Magnitude (a.u.)       :      0.52200
Magnitude (Debye)      :      1.32682

Rotational constants in cm-1:     0.613602     0.430998     0.306642
Rotational constants in MHz : 18395.316675 12920.983545  9192.908699

                             ****ORCA TERMINATED NORMALLY****
TOTAL RUN TIME: 0 days 0 hours 0 minutes 4 seconds 147 msec
