                         Program Version 4.2.0 -  RELEASE  -
|  1> #
|  2> # 138 TPSS-D3BJ/Def2-TZVPPD
|  3> #
|  4> ! tpss d3bj def2-tzvppd def2/j grid4 nofinalgrid
|  5>
|  6> *xyz 0 1
|  7> H          0.64849       -1.47778       -0.13722
|  8> H         -0.62659       -0.18590       -3.09890
|  9> H         -0.40094       -0.71477       -2.61128
| 10> H          0.74472        0.82794        2.20080
| 11> H          0.41684       -1.04544        0.48242
| 12> H         -0.86873        0.85706        2.13389
| 13> Na         0.12711        1.09566       -0.53418
| 14> N         -0.04090        0.64323        1.56447
| 15> *
| 16>
| 17> %maxcore 5000
| 18>
| 19> %pal
| 20> nprocs = 24
| 21> end
| 22>
| 23>
| 24>                          ****END OF INPUT****

CARTESIAN COORDINATES (ANGSTROEM)
---------------------------------
  H      0.648490   -1.477780   -0.137220
  H     -0.626590   -0.185900   -3.098900
  H     -0.400940   -0.714770   -2.611280
  H      0.744720    0.827940    2.200800
  H      0.416840   -1.045440    0.482420
  H     -0.868730    0.857060    2.133890
  Na     0.127110    1.095660   -0.534180
  N     -0.040900    0.643230    1.564470

 Total Charge           Charge          ....    0
 Multiplicity           Mult            ....    1
 Number of Electrons    NEL             ....   24
 Basis Dimension        Dim             ....  174

ORBITAL ENERGIES
----------------

  NO   OCC          E(Eh)            E(eV)
   0   2.0000     -38.129763     -1037.5636
   1   2.0000     -13.984490      -380.5373
   2   2.0000      -2.098715       -57.1089
   3   2.0000      -1.049161       -28.5491
   4   2.0000      -1.048111       -28.5206
   5   2.0000      -1.044362       -28.4185
   6   2.0000      -0.658396       -17.9159
   7   2.0000      -0.435949       -11.8628
   8   2.0000      -0.363883        -9.9018
   9   2.0000      -0.321298        -8.7430
  10   2.0000      -0.200502        -5.4559
  11   2.0000      -0.121565        -3.3080
  12   0.0000      -0.054038        -1.4705
  13   0.0000      -0.012500        -0.3402
  14   0.0000      -0.002734        -0.0744
  15   0.0000       0.003659         0.0996
  16   0.0000       0.018427         0.5014

MULLIKEN ATOMIC CHARGES
-----------------------
   0 H :   -0.089120
   1 H :   -0.035750
   2 H :    0.060711
   3 H :    0.009760
   4 H :    0.072335
   5 H :   -0.032771
   6 Na:    0.743326
   7 N :   -0.728491
Sum of atomic charges:    0.0000000

LOEWDIN ATOMIC CHARGES
----------------------
   0 H :    0.032857
   1 H :    0.045209
   2 H :    0.030449
   3 H :   -0.293985
   4 H :   -0.067691
   5 H :   -0.295859
   6 Na:    0.495241
   7 N :    0.053779

  Mayer bond orders larger than 0.100000
B(  0-H ,  4-H ) :   1.0134 B(  0-H ,  7-N ) :   0.1064 B(  1-H ,  2-H ) :   0.9744
B(  3-H ,  7-N ) :   1.2066 B(  5-H ,  7-N ) :   1.2639 B(  6-Na,  7-N ) :   0.3224

Dispersion correction           -0.003868032
FINAL SINGLE POINT ENERGY      -220.647176286242

DIPOLE MOMENT
-------------
                                X             Y             Z
Electronic contribution:      0.51049       6.92289      -0.78744
Nuclear contribution   :     -0.44551      -6.18803      -1.41111
                        -----------------------------------------
Total Dipole Moment    :      0.06498       0.73486      -2.19856
                        -----------------------------------------
Magnitude (a.u.)       :      2.31903
Magnitude (Debye)      :      5.89450

Rotational constants in cm-1:     0.993150     0.247328     0.211706
Rotational constants in MHz : 29773.882147  7414.712908  6346.774487

                             ****ORCA TERMINATED NORMALLY****
TOTAL RUN TIME: 0 days 0 hours 0 minutes 3 seconds 412 msec
