                         Program Version 4.2.0 -  RELEASE  -
|  1> #
|  2> # 143 TPSS-D3BJ/Def2-TZVPPD
|  3> #
|  4> ! tpss d3bj def2-tzvppd def2/j grid4 nofinalgrid
|  5>
|  6> *xyz 0 1
|  7> H          1.52165        0.00105        0.54476
|  8> C         -0.07322       -0.00002       -0.82132
|  9> C         -0.09157        0.00017        1.71374
| 10> H          0.24008        0.90261       -1.36729
| 11> N          0.49648       -0.00048        0.54416
| 12> H          0.26500       -0.88652       -1.37867
| 13> H         -1.19216       -0.00126        1.49873
| 14> H         -1.16627       -0.01555       -0.73412
| 15> *
| 16>
| 17> %maxcore 5000
| 18>
| 19> %pal
| 20> nprocs = 24
| 21> end
| 22>
| 23>
| 24>                          ****END OF INPUT****

CARTESIAN COORDINATES (ANGSTROEM)
---------------------------------
  H      1.521650    0.001050    0.544760
  C     -0.073220   -0.000020   -0.821320
  C     -0.091570    0.000170    1.713740
  H      0.240080    0.902610   -1.367290
  N      0.496480   -0.000480    0.544160
  H      0.265000   -0.886520   -1.378670
  H     -1.192160   -0.001260    1.498730
  H     -1.166270   -0.015550   -0.734120

 Total Charge           Charge          ....    0
 Multiplicity           Mult            ....    1
 Number of Electrons    NEL             ....   24
 Basis Dimension        Dim             ....  196

ORBITAL ENERGIES
----------------

  NO   OCC          E(Eh)            E(eV)
   0   2.0000     -14.161328      -385.3493
   1   2.0000     -10.038259      -273.1549
   2   2.0000      -9.993519      -271.9375
   3   2.0000      -0.890745       -24.2384
   4   2.0000      -0.677205       -18.4277
   5   2.0000      -0.578370       -15.7382
   6   2.0000      -0.456589       -12.4244
   7   2.0000      -0.421440       -11.4680
   8   2.0000      -0.399393       -10.8680
   9   2.0000      -0.364702        -9.9240
  10   2.0000      -0.293991        -7.9999
  11   2.0000      -0.172381        -4.6907
  12   0.0000      -0.046447        -1.2639
  13   0.0000      -0.009818        -0.2672
  14   0.0000       0.014068         0.3828
  15   0.0000       0.036713         0.9990
  16   0.0000       0.056355         1.5335

MULLIKEN ATOMIC CHARGES
-----------------------
   0 H :    0.072694
   1 C :   -0.053350
   2 C :   -0.153181
   3 H :    0.079934
   4 N :   -0.045734
   5 H :    0.080934
   6 H :   -0.023063
   7 H :    0.041766
Sum of atomic charges:   -0.0000000

LOEWDIN ATOMIC CHARGES
----------------------
   0 H :   -0.059109
   1 C :    0.144588
   2 C :    0.073856
   3 H :   -0.007494
   4 N :   -0.014882
   5 H :   -0.007603
   6 H :   -0.118963
   7 H :   -0.010393

  Mayer bond orders larger than 0.100000
B(  0-H ,  4-N ) :   1.0200 B(  1-C ,  3-H ) :   0.9900 B(  1-C ,  4-N ) :   0.8425
B(  1-C ,  5-H ) :   0.9896 B(  1-C ,  7-H ) :   0.9982 B(  2-C ,  4-N ) :   1.6590
B(  2-C ,  6-H ) :   1.1035

Dispersion correction           -0.004957609
FINAL SINGLE POINT ENERGY      -133.965692244984

DIPOLE MOMENT
-------------
                                X             Y             Z
Electronic contribution:      0.95073      -0.00070       1.67755
Nuclear contribution   :     -0.81448       0.00081      -3.18683
                        -----------------------------------------
Total Dipole Moment    :      0.13625       0.00011      -1.50927
                        -----------------------------------------
Magnitude (a.u.)       :      1.51541
Magnitude (Debye)      :      3.85187

Rotational constants in cm-1:     1.686117     0.341111     0.300010
Rotational constants in MHz : 50548.520534 10226.261318  8994.065933

                             ****ORCA TERMINATED NORMALLY****
TOTAL RUN TIME: 0 days 0 hours 0 minutes 4 seconds 11 msec
