                         Program Version 4.2.0 -  RELEASE  -
|  1> #
|  2> # 167_li TPSS-D3BJ/Def2-TZVPPD
|  3> #
|  4> ! tpss d3bj def2-tzvppd def2/j grid4 nofinalgrid
|  5>
|  6> *xyz 0 1
|  7> Li         0.00000        0.00000        0.80730
|  8> H          0.00000        0.00000       -0.80730
|  9> *
| 10>
| 11> %maxcore 5000
| 12>
| 13> %pal
| 14> nprocs = 24
| 15> end
| 16>
| 17>
| 18>                          ****END OF INPUT****

CARTESIAN COORDINATES (ANGSTROEM)
---------------------------------
  Li     0.000000    0.000000    0.807300
  H      0.000000    0.000000   -0.807300

 Total Charge           Charge          ....    0
 Multiplicity           Mult            ....    1
 Number of Electrons    NEL             ....    4
 Basis Dimension        Dim             ....   39

ORBITAL ENERGIES
----------------

  NO   OCC          E(Eh)            E(eV)
   0   2.0000      -1.908531       -51.9338
   1   2.0000      -0.164834        -4.4854
   2   0.0000      -0.054051        -1.4708
   3   0.0000      -0.009886        -0.2690
   4   0.0000      -0.009886        -0.2690
   5   0.0000       0.036201         0.9851
   6   0.0000       0.064892         1.7658

MULLIKEN ATOMIC CHARGES
-----------------------
   0 Li:    0.627339
   1 H :   -0.627339
Sum of atomic charges:    0.0000000

LOEWDIN ATOMIC CHARGES
----------------------
   0 Li:    0.300715
   1 H :   -0.300715

  Mayer bond orders larger than 0.100000
B(  0-Li,  1-H ) :   0.6115

Dispersion correction           -0.000288942
FINAL SINGLE POINT ENERGY        -8.082504300104

DIPOLE MOMENT
-------------
                                X             Y             Z
Electronic contribution:      0.00000       0.00000       3.76232
Nuclear contribution   :      0.00000       0.00000      -1.50351
                        -----------------------------------------
Total Dipole Moment    :      0.00000       0.00000       2.25881
                        -----------------------------------------
Magnitude (a.u.)       :      2.25881
Magnitude (Debye)      :      5.74144

Rotational constants in cm-1:     0.000000     7.346778     7.346778
Rotational constants in MHz :     0.000000 220250.867747 220250.867747

                             ****ORCA TERMINATED NORMALLY****
TOTAL RUN TIME: 0 days 0 hours 0 minutes 2 seconds 903 msec
