                         Program Version 4.2.0 -  RELEASE  -
|  1> #
|  2> # 168_be TPSS-D3BJ/Def2-TZVPPD
|  3> #
|  4> ! tpss d3bj def2-tzvppd def2/j grid4 nofinalgrid
|  5>
|  6> *xyz 0 1
|  7> Be         0.00000        0.00000        0.00000
|  8> H          0.00000        0.00000       -1.34402
|  9> H          0.00000        0.00000        1.34402
| 10> *
| 11>
| 12> %maxcore 5000
| 13>
| 14> %pal
| 15> nprocs = 24
| 16> end
| 17>
| 18>
| 19>                          ****END OF INPUT****

CARTESIAN COORDINATES (ANGSTROEM)
---------------------------------
  Be     0.000000    0.000000    0.000000
  H      0.000000    0.000000   -1.344020
  H      0.000000    0.000000    1.344020

 Total Charge           Charge          ....    0
 Multiplicity           Mult            ....    1
 Number of Electrons    NEL             ....    6
 Basis Dimension        Dim             ....   56

ORBITAL ENERGIES
----------------

  NO   OCC          E(Eh)            E(eV)
   0   2.0000      -3.909988      -106.3962
   1   2.0000      -0.318201        -8.6587
   2   2.0000      -0.283718        -7.7204
   3   0.0000      -0.051606        -1.4043
   4   0.0000      -0.051606        -1.4043
   5   0.0000       0.019624         0.5340
   6   0.0000       0.031752         0.8640
   7   0.0000       0.058452         1.5906

MULLIKEN ATOMIC CHARGES
-----------------------
   0 Be:    0.159803
   1 H :   -0.079902
   2 H :   -0.079902
Sum of atomic charges:    0.0000000

LOEWDIN ATOMIC CHARGES
----------------------
   0 Be:    0.369687
   1 H :   -0.184843
   2 H :   -0.184843

  Mayer bond orders larger than 0.100000
B(  0-Be,  1-H ) :   0.9776 B(  0-Be,  2-H ) :   0.9776 B(  1-H ,  2-H ) :   0.1159

Dispersion correction           -0.000673590
FINAL SINGLE POINT ENERGY       -15.921988581214

DIPOLE MOMENT
-------------
                                X             Y             Z
Electronic contribution:      0.00000      -0.00000       0.00000
Nuclear contribution   :      0.00000       0.00000       0.00000
                        -----------------------------------------
Total Dipole Moment    :      0.00000      -0.00000       0.00000
                        -----------------------------------------
Magnitude (a.u.)       :      0.00000
Magnitude (Debye)      :      0.00000

Rotational constants in cm-1:     0.000000     4.629082     4.629082
Rotational constants in MHz :     0.000000 138776.398767 138776.398767

                             ****ORCA TERMINATED NORMALLY****
TOTAL RUN TIME: 0 days 0 hours 0 minutes 2 seconds 299 msec
