                         Program Version 4.2.0 -  RELEASE  -
|  1> #
|  2> # 169_b TPSS-D3BJ/Def2-TZVPPD
|  3> #
|  4> ! tpss d3bj def2-tzvppd def2/j grid4 nofinalgrid
|  5>
|  6> *xyz 0 1
|  7> B          0.00000        0.00000        0.00000
|  8> H          0.60006        1.03933        0.00000
|  9> H          0.60006       -1.03933        0.00000
| 10> H         -1.20012        0.00000        0.00000
| 11> *
| 12>
| 13> %maxcore 5000
| 14>
| 15> %pal
| 16> nprocs = 24
| 17> end
| 18>
| 19>
| 20>                          ****END OF INPUT****

CARTESIAN COORDINATES (ANGSTROEM)
---------------------------------
  B      0.000000    0.000000    0.000000
  H      0.600060    1.039330    0.000000
  H      0.600060   -1.039330    0.000000
  H     -1.200120    0.000000    0.000000

 Total Charge           Charge          ....    0
 Multiplicity           Mult            ....    1
 Number of Electrons    NEL             ....    8
 Basis Dimension        Dim             ....   88

ORBITAL ENERGIES
----------------

  NO   OCC          E(Eh)            E(eV)
   0   2.0000      -6.613547      -179.9638
   1   2.0000      -0.475206       -12.9310
   2   2.0000      -0.319856        -8.7037
   3   2.0000      -0.319855        -8.7037
   4   0.0000      -0.100439        -2.7331
   5   0.0000       0.007034         0.1914
   6   0.0000       0.073011         1.9867
   7   0.0000       0.073025         1.9871
   8   0.0000       0.081300         2.2123

MULLIKEN ATOMIC CHARGES
-----------------------
   0 B :   -0.086529
   1 H :    0.029069
   2 H :    0.029069
   3 H :    0.028392
Sum of atomic charges:   -0.0000000

LOEWDIN ATOMIC CHARGES
----------------------
   0 B :    0.259981
   1 H :   -0.086654
   2 H :   -0.086654
   3 H :   -0.086673

  Mayer bond orders larger than 0.100000
B(  0-B ,  1-H ) :   0.9932 B(  0-B ,  2-H ) :   0.9932 B(  0-B ,  3-H ) :   0.9934

Dispersion correction           -0.001008762
FINAL SINGLE POINT ENERGY       -26.627873441663

DIPOLE MOMENT
-------------
                                X             Y             Z
Electronic contribution:      0.00002       0.00000      -0.00000
Nuclear contribution   :      0.00000       0.00000       0.00000
                        -----------------------------------------
Total Dipole Moment    :      0.00002       0.00000      -0.00000
                        -----------------------------------------
Magnitude (a.u.)       :      0.00002
Magnitude (Debye)      :      0.00005

Rotational constants in cm-1:     7.741042     7.740977     3.870505
Rotational constants in MHz : 232070.613118 232068.644801 116034.814478

                             ****ORCA TERMINATED NORMALLY****
TOTAL RUN TIME: 0 days 0 hours 0 minutes 2 seconds 537 msec
