                         Program Version 4.2.0 -  RELEASE  -
|  1> #
|  2> # 170_c TPSS-D3BJ/Def2-TZVPPD
|  3> #
|  4> ! tpss d3bj def2-tzvppd def2/j grid4 nofinalgrid
|  5>
|  6> *xyz 0 1
|  7> C          0.00000        0.00000        0.00000
|  8> H          0.63307        0.63307       -0.63307
|  9> H         -0.63307       -0.63307       -0.63307
| 10> H          0.63307       -0.63307        0.63307
| 11> H         -0.63307        0.63307        0.63307
| 12> *
| 13>
| 14> %maxcore 5000
| 15>
| 16> %pal
| 17> nprocs = 24
| 18> end
| 19>
| 20>
| 21>                          ****END OF INPUT****

CARTESIAN COORDINATES (ANGSTROEM)
---------------------------------
  C      0.000000    0.000000    0.000000
  H      0.633070    0.633070   -0.633070
  H     -0.633070   -0.633070   -0.633070
  H      0.633070   -0.633070    0.633070
  H     -0.633070    0.633070    0.633070

 Total Charge           Charge          ....    0
 Multiplicity           Mult            ....    1
 Number of Electrons    NEL             ....   10
 Basis Dimension        Dim             ....  105

ORBITAL ENERGIES
----------------

  NO   OCC          E(Eh)            E(eV)
   0   2.0000      -9.972811      -271.3740
   1   2.0000      -0.641230       -17.4487
   2   2.0000      -0.353449        -9.6178
   3   2.0000      -0.353449        -9.6178
   4   2.0000      -0.353449        -9.6178
   5   0.0000       0.004913         0.1337
   6   0.0000       0.086011         2.3405
   7   0.0000       0.086011         2.3405
   8   0.0000       0.086011         2.3405
   9   0.0000       0.110128         2.9967

MULLIKEN ATOMIC CHARGES
-----------------------
   0 C :   -0.351997
   1 H :    0.088000
   2 H :    0.087999
   3 H :    0.087998
   4 H :    0.088000
Sum of atomic charges:    0.0000000

LOEWDIN ATOMIC CHARGES
----------------------
   0 C :    0.259796
   1 H :   -0.064949
   2 H :   -0.064949
   3 H :   -0.064949
   4 H :   -0.064949

  Mayer bond orders larger than 0.100000
B(  0-C ,  1-H ) :   0.9887 B(  0-C ,  2-H ) :   0.9887 B(  0-C ,  3-H ) :   0.9887
B(  0-C ,  4-H ) :   0.9887

Dispersion correction           -0.001396068
FINAL SINGLE POINT ENERGY       -40.543014275656

DIPOLE MOMENT
-------------
                                X             Y             Z
Electronic contribution:      0.00000      -0.00000       0.00000
Nuclear contribution   :      0.00000       0.00000       0.00000
                        -----------------------------------------
Total Dipole Moment    :      0.00000      -0.00000       0.00000
                        -----------------------------------------
Magnitude (a.u.)       :      0.00000
Magnitude (Debye)      :      0.00000

Rotational constants in cm-1:     5.216064     5.216064     5.216064
Rotational constants in MHz : 156373.665933 156373.665933 156373.665933

                             ****ORCA TERMINATED NORMALLY****
TOTAL RUN TIME: 0 days 0 hours 0 minutes 3 seconds 60 msec
