                         Program Version 4.2.0 -  RELEASE  -
|  1> #
|  2> # 171_n TPSS-D3BJ/Def2-TZVPPD
|  3> #
|  4> ! tpss d3bj def2-tzvppd def2/j grid4 nofinalgrid
|  5>
|  6> *xyz 0 1
|  7> N          0.00000        0.00000        0.55227
|  8> N          0.00000        0.00000       -0.55227
|  9> *
| 10>
| 11> %maxcore 5000
| 12>
| 13> %pal
| 14> nprocs = 24
| 15> end
| 16>
| 17>
| 18>                          ****END OF INPUT****

CARTESIAN COORDINATES (ANGSTROEM)
---------------------------------
  N      0.000000    0.000000    0.552270
  N      0.000000    0.000000   -0.552270

 Total Charge           Charge          ....    0
 Multiplicity           Mult            ....    1
 Number of Electrons    NEL             ....   14
 Basis Dimension        Dim             ....   74

ORBITAL ENERGIES
----------------

  NO   OCC          E(Eh)            E(eV)
   0   2.0000     -14.201387      -386.4394
   1   2.0000     -14.200196      -386.4070
   2   2.0000      -1.049971       -28.5712
   3   2.0000      -0.510241       -13.8844
   4   2.0000      -0.426008       -11.5923
   5   2.0000      -0.426008       -11.5923
   6   2.0000      -0.382569       -10.4102
   7   0.0000      -0.066688        -1.8147
   8   0.0000      -0.066688        -1.8147
   9   0.0000       0.048666         1.3243
  10   0.0000       0.085745         2.3333
  11   0.0000       0.212600         5.7851

MULLIKEN ATOMIC CHARGES
-----------------------
   0 N :   -0.000000
   1 N :    0.000000
Sum of atomic charges:    0.0000000

LOEWDIN ATOMIC CHARGES
----------------------
   0 N :   -0.000000
   1 N :    0.000000

  Mayer bond orders larger than 0.100000
B(  0-N ,  1-N ) :   2.6674

Dispersion correction           -0.000528217
FINAL SINGLE POINT ENERGY      -109.589913927179

DIPOLE MOMENT
-------------
                                X             Y             Z
Electronic contribution:      0.00000      -0.00000      -0.00000
Nuclear contribution   :      0.00000       0.00000       0.00000
                        -----------------------------------------
Total Dipole Moment    :      0.00000      -0.00000      -0.00000
                        -----------------------------------------
Magnitude (a.u.)       :      0.00000
Magnitude (Debye)      :      0.00000

Rotational constants in cm-1:     0.000000     1.972963     1.972963
Rotational constants in MHz :     0.000000 59147.933340 59147.933340

                             ****ORCA TERMINATED NORMALLY****
TOTAL RUN TIME: 0 days 0 hours 0 minutes 2 seconds 172 msec
