                         Program Version 4.2.0 -  RELEASE  -
|  1> #
|  2> # 172_o TPSS-D3BJ/Def2-TZVPPD
|  3> #
|  4> ! tpss d3bj def2-tzvppd def2/j grid4 nofinalgrid
|  5>
|  6> *xyz 0 3
|  7> O          0.00000        0.00000        0.61122
|  8> O          0.00000        0.00000       -0.61122
|  9> *
| 10>
| 11> %maxcore 5000
| 12>
| 13> %pal
| 14> nprocs = 24
| 15> end
| 16>
| 17>
| 18>                          ****END OF INPUT****

CARTESIAN COORDINATES (ANGSTROEM)
---------------------------------
  O      0.000000    0.000000    0.611220
  O      0.000000    0.000000   -0.611220

 Total Charge           Charge          ....    0
 Multiplicity           Mult            ....    3
 Number of Electrons    NEL             ....   16
 Basis Dimension        Dim             ....   80

ORBITAL ENERGIES
----------------
                 SPIN UP ORBITALS
  NO   OCC          E(Eh)            E(eV)
   0   1.0000     -19.042835      -518.1819
   1   1.0000     -19.042802      -518.1810
   2   1.0000      -1.215788       -33.0833
   3   1.0000      -0.779794       -21.2193
   4   1.0000      -0.501662       -13.6509
   5   1.0000      -0.501662       -13.6509
   6   1.0000      -0.498899       -13.5757
   7   1.0000      -0.261885        -7.1262
   8   1.0000      -0.261885        -7.1262
   9   0.0000       0.033390         0.9086
  10   0.0000       0.041021         1.1162
  11   0.0000       0.065033         1.7696
  12   0.0000       0.065033         1.7696
  13   0.0000       0.113642         3.0924

                 SPIN DOWN ORBITALS
  NO   OCC          E(Eh)            E(eV)
   0   1.0000     -19.012853      -517.3660
   1   1.0000     -19.012810      -517.3649
   2   1.0000      -1.169221       -31.8161
   3   1.0000      -0.706559       -19.2264
   4   1.0000      -0.468553       -12.7500
   5   1.0000      -0.422341       -11.4925
   6   1.0000      -0.422341       -11.4925
   7   0.0000      -0.162556        -4.4234
   8   0.0000      -0.162556        -4.4234
   9   0.0000       0.044129         1.2008
  10   0.0000       0.049908         1.3581
  11   0.0000       0.072774         1.9803

MULLIKEN ATOMIC CHARGES AND SPIN POPULATIONS
--------------------------------------------
   0 O :   -0.000000    1.000000
   1 O :    0.000000    1.000000
Sum of atomic charges         :   -0.0000000

LOEWDIN ATOMIC CHARGES AND SPIN POPULATIONS
-------------------------------------------
   0 O :   -0.000000    1.000000
   1 O :    0.000000    1.000000

  Mayer bond orders larger than 0.100000
B(  0-O ,  1-O ) :   1.6524

Dispersion correction           -0.000322862
FINAL SINGLE POINT ENERGY      -150.413602838249

DIPOLE MOMENT
-------------
                                X             Y             Z
Electronic contribution:     -0.00000       0.00000      -0.00000
Nuclear contribution   :      0.00000       0.00000       0.00000
                        -----------------------------------------
Total Dipole Moment    :     -0.00000       0.00000      -0.00000
                        -----------------------------------------
Magnitude (a.u.)       :      0.00000
Magnitude (Debye)      :      0.00000

Rotational constants in cm-1:     0.000000     1.410194     1.410194
Rotational constants in MHz :     0.000000 42276.561443 42276.561443

                             ****ORCA TERMINATED NORMALLY****
TOTAL RUN TIME: 0 days 0 hours 0 minutes 2 seconds 774 msec
