                         Program Version 4.2.0 -  RELEASE  -
|  1> #
|  2> # 174_na TPSS-D3BJ/Def2-TZVPPD
|  3> #
|  4> ! tpss d3bj def2-tzvppd def2/j grid4 nofinalgrid
|  5>
|  6> *xyz 0 1
|  7> Na         0.00000        0.00000        0.94863
|  8> H          0.00000        0.00000       -0.94863
|  9> *
| 10>
| 11> %maxcore 5000
| 12>
| 13> %pal
| 14> nprocs = 24
| 15> end
| 16>
| 17>
| 18>                          ****END OF INPUT****

CARTESIAN COORDINATES (ANGSTROEM)
---------------------------------
  Na     0.000000    0.000000    0.948630
  H      0.000000    0.000000   -0.948630

 Total Charge           Charge          ....    0
 Multiplicity           Mult            ....    1
 Number of Electrons    NEL             ....   12
 Basis Dimension        Dim             ....   52

ORBITAL ENERGIES
----------------

  NO   OCC          E(Eh)            E(eV)
   0   2.0000     -38.138104     -1037.7906
   1   2.0000      -2.106146       -57.3112
   2   2.0000      -1.055778       -28.7292
   3   2.0000      -1.055778       -28.7292
   4   2.0000      -1.052101       -28.6291
   5   2.0000      -0.155506        -4.2315
   6   0.0000      -0.061337        -1.6691
   7   0.0000      -0.009612        -0.2616
   8   0.0000      -0.009612        -0.2616
   9   0.0000       0.018962         0.5160
  10   0.0000       0.030515         0.8303

MULLIKEN ATOMIC CHARGES
-----------------------
   0 Na:    0.534430
   1 H :   -0.534430
Sum of atomic charges:    0.0000000

LOEWDIN ATOMIC CHARGES
----------------------
   0 Na:    0.312257
   1 H :   -0.312257

  Mayer bond orders larger than 0.100000
B(  0-Na,  1-H ) :   0.7257

Dispersion correction           -0.000337930
FINAL SINGLE POINT ENERGY      -162.864607509711

DIPOLE MOMENT
-------------
                                X             Y             Z
Electronic contribution:      0.00000       0.00000       4.18893
Nuclear contribution   :      0.00000       0.00000      -1.77816
                        -----------------------------------------
Total Dipole Moment    :      0.00000       0.00000       2.41077
                        -----------------------------------------
Magnitude (a.u.)       :      2.41077
Magnitude (Debye)      :      6.12768

Rotational constants in cm-1:     0.000000     4.849743     4.849743
Rotational constants in MHz :     0.000000 145391.644375 145391.644375

                             ****ORCA TERMINATED NORMALLY****
TOTAL RUN TIME: 0 days 0 hours 0 minutes 3 seconds 219 msec
