                         Program Version 4.2.0 -  RELEASE  -
|  1> #
|  2> # 176_al TPSS-D3BJ/Def2-TZVPPD
|  3> #
|  4> ! tpss d3bj def2-tzvppd def2/j grid4 nofinalgrid
|  5>
|  6> *xyz 0 1
|  7> Al         0.00000        0.00000        0.00000
|  8> H          0.80046       -1.38644        0.00000
|  9> H          0.80046        1.38644        0.00000
| 10> H         -1.60093        0.00000        0.00000
| 11> *
| 12>
| 13> %maxcore 5000
| 14>
| 15> %pal
| 16> nprocs = 24
| 17> end
| 18>
| 19>
| 20>                          ****END OF INPUT****

CARTESIAN COORDINATES (ANGSTROEM)
---------------------------------
  Al     0.000000    0.000000    0.000000
  H      0.800460   -1.386440    0.000000
  H      0.800460    1.386440    0.000000
  H     -1.600930    0.000000    0.000000

 Total Charge           Charge          ....    0
 Multiplicity           Mult            ....    1
 Number of Electrons    NEL             ....   16
 Basis Dimension        Dim             ....   99

ORBITAL ENERGIES
----------------

  NO   OCC          E(Eh)            E(eV)
   0   2.0000     -55.620111     -1513.5002
   1   2.0000      -3.987458      -108.5042
   2   2.0000      -2.564241       -69.7765
   3   2.0000      -2.551637       -69.4336
   4   2.0000      -2.551636       -69.4335
   5   2.0000      -0.383828       -10.4445
   6   2.0000      -0.277073        -7.5395
   7   2.0000      -0.277072        -7.5395
   8   0.0000      -0.085409        -2.3241
   9   0.0000       0.004626         0.1259
  10   0.0000       0.012542         0.3413
  11   0.0000       0.023430         0.6376
  12   0.0000       0.023430         0.6376

MULLIKEN ATOMIC CHARGES
-----------------------
   0 Al:    0.514001
   1 H :   -0.171364
   2 H :   -0.171364
   3 H :   -0.171273
Sum of atomic charges:   -0.0000000

LOEWDIN ATOMIC CHARGES
----------------------
   0 Al:    0.651823
   1 H :   -0.217277
   2 H :   -0.217277
   3 H :   -0.217269

  Mayer bond orders larger than 0.100000
B(  0-Al,  1-H ) :   0.9318 B(  0-Al,  2-H ) :   0.9318 B(  0-Al,  3-H ) :   0.9318

Dispersion correction           -0.001362248
FINAL SINGLE POINT ENERGY      -244.232886665448

DIPOLE MOMENT
-------------
                                X             Y             Z
Electronic contribution:      0.00003       0.00000      -0.00000
Nuclear contribution   :     -0.00001       0.00000       0.00000
                        -----------------------------------------
Total Dipole Moment    :      0.00002       0.00000      -0.00000
                        -----------------------------------------
Magnitude (a.u.)       :      0.00002
Magnitude (Debye)      :      0.00005

Rotational constants in cm-1:     4.350150     4.350130     2.175070
Rotational constants in MHz : 130414.210579 130413.615544 65206.956531

                             ****ORCA TERMINATED NORMALLY****
TOTAL RUN TIME: 0 days 0 hours 0 minutes 2 seconds 415 msec
