                         Program Version 4.2.0 -  RELEASE  -
|  1> #
|  2> # 177_si TPSS-D3BJ/Def2-TZVPPD
|  3> #
|  4> ! tpss d3bj def2-tzvppd def2/j grid4 nofinalgrid
|  5>
|  6> *xyz 0 1
|  7> Si         0.00000        0.00000        0.00000
|  8> H         -0.86552        0.86552        0.86552
|  9> H          0.86552       -0.86552        0.86552
| 10> H         -0.86552       -0.86552       -0.86552
| 11> H          0.86552        0.86552       -0.86552
| 12> *
| 13>
| 14> %maxcore 5000
| 15>
| 16> %pal
| 17> nprocs = 24
| 18> end
| 19>
| 20>
| 21>                          ****END OF INPUT****

CARTESIAN COORDINATES (ANGSTROEM)
---------------------------------
  Si     0.000000    0.000000    0.000000
  H     -0.865520    0.865520    0.865520
  H      0.865520   -0.865520    0.865520
  H     -0.865520   -0.865520   -0.865520
  H      0.865520    0.865520   -0.865520

 Total Charge           Charge          ....    0
 Multiplicity           Mult            ....    1
 Number of Electrons    NEL             ....   18
 Basis Dimension        Dim             ....  116

ORBITAL ENERGIES
----------------

  NO   OCC          E(Eh)            E(eV)
   0   2.0000     -65.672958     -1787.0520
   1   2.0000      -5.111039      -139.0784
   2   2.0000      -3.484643       -94.8220
   3   2.0000      -3.484643       -94.8220
   4   2.0000      -3.484643       -94.8220
   5   2.0000      -0.502228       -13.6663
   6   2.0000      -0.321430        -8.7466
   7   2.0000      -0.321430        -8.7466
   8   2.0000      -0.321430        -8.7466
   9   0.0000      -0.000562        -0.0153
  10   0.0000       0.009762         0.2656
  11   0.0000       0.009762         0.2656
  12   0.0000       0.009762         0.2657
  13   0.0000       0.061856         1.6832

MULLIKEN ATOMIC CHARGES
-----------------------
   0 Si:    0.218121
   1 H :   -0.054530
   2 H :   -0.054530
   3 H :   -0.054530
   4 H :   -0.054530
Sum of atomic charges:   -0.0000000

LOEWDIN ATOMIC CHARGES
----------------------
   0 Si:    0.680190
   1 H :   -0.170048
   2 H :   -0.170047
   3 H :   -0.170047
   4 H :   -0.170048

  Mayer bond orders larger than 0.100000
B(  0-Si,  1-H ) :   0.9666 B(  0-Si,  2-H ) :   0.9666 B(  0-Si,  3-H ) :   0.9666
B(  0-Si,  4-H ) :   0.9666

Dispersion correction           -0.002217846
FINAL SINGLE POINT ENERGY      -291.924256687574

DIPOLE MOMENT
-------------
                                X             Y             Z
Electronic contribution:     -0.00000      -0.00000      -0.00000
Nuclear contribution   :      0.00000       0.00000       0.00000
                        -----------------------------------------
Total Dipole Moment    :     -0.00000      -0.00000      -0.00000
                        -----------------------------------------
Magnitude (a.u.)       :      0.00000
Magnitude (Debye)      :      0.00000

Rotational constants in cm-1:     2.790565     2.790565     2.790565
Rotational constants in MHz : 83659.038574 83659.038574 83659.038574

                             ****ORCA TERMINATED NORMALLY****
TOTAL RUN TIME: 0 days 0 hours 0 minutes 2 seconds 894 msec
