                         Program Version 4.2.0 -  RELEASE  -
|  1> #
|  2> # 178_p TPSS-D3BJ/Def2-TZVPPD
|  3> #
|  4> ! tpss d3bj def2-tzvppd def2/j grid4 nofinalgrid
|  5>
|  6> *xyz 0 1
|  7> P          0.00000        0.00000        0.95949
|  8> P          0.00000        0.00000       -0.95949
|  9> *
| 10>
| 11> %maxcore 5000
| 12>
| 13> %pal
| 14> nprocs = 24
| 15> end
| 16>
| 17>
| 18>                          ****END OF INPUT****

CARTESIAN COORDINATES (ANGSTROEM)
---------------------------------
  P      0.000000    0.000000    0.959490
  P      0.000000    0.000000   -0.959490

 Total Charge           Charge          ....    0
 Multiplicity           Mult            ....    1
 Number of Electrons    NEL             ....   30
 Basis Dimension        Dim             ....   96

ORBITAL ENERGIES
----------------

  NO   OCC          E(Eh)            E(eV)
   0   2.0000     -76.611433     -2084.7031
   1   2.0000     -76.611405     -2084.7023
   2   2.0000      -6.386838      -173.7947
   3   2.0000      -6.386516      -173.7859
   4   2.0000      -4.564481      -124.2058
   5   2.0000      -4.564481      -124.2058
   6   2.0000      -4.564326      -124.2016
   7   2.0000      -4.564326      -124.2016
   8   2.0000      -4.561643      -124.1286
   9   2.0000      -4.559777      -124.0778
  10   2.0000      -0.625742       -17.0273
  11   2.0000      -0.432177       -11.7601
  12   2.0000      -0.268048        -7.2939
  13   2.0000      -0.261641        -7.1196
  14   2.0000      -0.261641        -7.1196
  15   0.0000      -0.125791        -3.4230
  16   0.0000      -0.125791        -3.4230
  17   0.0000       0.012339         0.3358
  18   0.0000       0.020358         0.5540
  19   0.0000       0.074470         2.0264

MULLIKEN ATOMIC CHARGES
-----------------------
   0 P :    0.000004
   1 P :   -0.000004
Sum of atomic charges:   -0.0000000

LOEWDIN ATOMIC CHARGES
----------------------
   0 P :    0.000000
   1 P :   -0.000000

  Mayer bond orders larger than 0.100000
B(  0-P ,  1-P ) :   2.7557

Dispersion correction           -0.002110379
FINAL SINGLE POINT ENERGY      -682.757458425246

DIPOLE MOMENT
-------------
                                X             Y             Z
Electronic contribution:     -0.00000      -0.00000       0.00000
Nuclear contribution   :      0.00000       0.00000       0.00000
                        -----------------------------------------
Total Dipole Moment    :     -0.00000      -0.00000       0.00000
                        -----------------------------------------
Magnitude (a.u.)       :      0.00000
Magnitude (Debye)      :      0.00000

Rotational constants in cm-1:     0.000000     0.295589     0.295589
Rotational constants in MHz :     0.000000  8861.544214  8861.544214

                             ****ORCA TERMINATED NORMALLY****
TOTAL RUN TIME: 0 days 0 hours 0 minutes 2 seconds 599 msec
