                         Program Version 4.2.0 -  RELEASE  -
|  1> #
|  2> # 179_s TPSS-D3BJ/Def2-TZVPPD
|  3> #
|  4> ! tpss d3bj def2-tzvppd def2/j grid4 nofinalgrid
|  5>
|  6> *xyz 0 3
|  7> S          0.00000        0.00000        0.96937
|  8> S          0.00000        0.00000       -0.96937
|  9> *
| 10>
| 11> %maxcore 5000
| 12>
| 13> %pal
| 14> nprocs = 24
| 15> end
| 16>
| 17>
| 18>                          ****END OF INPUT****

CARTESIAN COORDINATES (ANGSTROEM)
---------------------------------
  S      0.000000    0.000000    0.969370
  S      0.000000    0.000000   -0.969370

 Total Charge           Charge          ....    0
 Multiplicity           Mult            ....    3
 Number of Electrons    NEL             ....   32
 Basis Dimension        Dim             ....  102

ORBITAL ENERGIES
----------------
                 SPIN UP ORBITALS
  NO   OCC          E(Eh)            E(eV)
   0   1.0000     -88.410831     -2405.7810
   1   1.0000     -88.410819     -2405.7807
   2   1.0000      -7.788231      -211.9285
   3   1.0000      -7.788153      -211.9264
   4   1.0000      -5.766213      -156.9066
   5   1.0000      -5.765641      -156.8911
   6   1.0000      -5.765590      -156.8897
   7   1.0000      -5.765590      -156.8897
   8   1.0000      -5.765551      -156.8886
   9   1.0000      -5.765551      -156.8886
  10   1.0000      -0.771355       -20.9896
  11   1.0000      -0.590537       -16.0693
  12   1.0000      -0.367730       -10.0064
  13   1.0000      -0.340699        -9.2709
  14   1.0000      -0.340699        -9.2709
  15   1.0000      -0.223361        -6.0780
  16   1.0000      -0.223361        -6.0780
  17   0.0000      -0.053562        -1.4575
  18   0.0000       0.013869         0.3774
  19   0.0000       0.028782         0.7832
  20   0.0000       0.028782         0.7832
  21   0.0000       0.030307         0.8247

                 SPIN DOWN ORBITALS
  NO   OCC          E(Eh)            E(eV)
   0   1.0000     -88.404948     -2405.6209
   1   1.0000     -88.404936     -2405.6206
   2   1.0000      -7.783335      -211.7953
   3   1.0000      -7.783253      -211.7931
   4   1.0000      -5.763350      -156.8287
   5   1.0000      -5.762773      -156.8130
   6   1.0000      -5.756108      -156.6317
   7   1.0000      -5.756108      -156.6317
   8   1.0000      -5.756067      -156.6306
   9   1.0000      -5.756067      -156.6306
  10   1.0000      -0.747468       -20.3396
  11   1.0000      -0.543580       -14.7916
  12   1.0000      -0.348677        -9.4880
  13   1.0000      -0.301761        -8.2113
  14   1.0000      -0.301761        -8.2113
  15   0.0000      -0.168623        -4.5885
  16   0.0000      -0.168623        -4.5885
  17   0.0000      -0.037385        -1.0173
  18   0.0000       0.022648         0.6163
  19   0.0000       0.035537         0.9670

MULLIKEN ATOMIC CHARGES AND SPIN POPULATIONS
--------------------------------------------
   0 S :   -0.000000    0.999999
   1 S :    0.000000    1.000001
Sum of atomic charges         :   -0.0000000

LOEWDIN ATOMIC CHARGES AND SPIN POPULATIONS
-------------------------------------------
   0 S :   -0.000000    1.000000
   1 S :    0.000000    1.000000

  Mayer bond orders larger than 0.100000
B(  0-S ,  1-S ) :   1.9254

Dispersion correction           -0.001706531
FINAL SINGLE POINT ENERGY      -796.446964341171

DIPOLE MOMENT
-------------
                                X             Y             Z
Electronic contribution:     -0.00000       0.00000       0.00000
Nuclear contribution   :      0.00000       0.00000       0.00000
                        -----------------------------------------
Total Dipole Moment    :     -0.00000       0.00000       0.00000
                        -----------------------------------------
Magnitude (a.u.)       :      0.00000
Magnitude (Debye)      :      0.00000

Rotational constants in cm-1:     0.000000     0.279785     0.279785
Rotational constants in MHz :     0.000000  8387.739618  8387.739618

                             ****ORCA TERMINATED NORMALLY****
TOTAL RUN TIME: 0 days 0 hours 0 minutes 2 seconds 827 msec
