                         Program Version 4.2.0 -  RELEASE  -
|  1> #
|  2> # 180_cl TPSS-D3BJ/Def2-TZVPPD
|  3> #
|  4> ! tpss d3bj def2-tzvppd def2/j grid4 nofinalgrid
|  5>
|  6> *xyz 0 1
|  7> Cl         0.00000        0.00000        1.02399
|  8> Cl         0.00000        0.00000       -1.02399
|  9> *
| 10>
| 11> %maxcore 5000
| 12>
| 13> %pal
| 14> nprocs = 24
| 15> end
| 16>
| 17>
| 18>                          ****END OF INPUT****

CARTESIAN COORDINATES (ANGSTROEM)
---------------------------------
  Cl     0.000000    0.000000    1.023990
  Cl     0.000000    0.000000   -1.023990

 Total Charge           Charge          ....    0
 Multiplicity           Mult            ....    1
 Number of Electrons    NEL             ....   34
 Basis Dimension        Dim             ....  102

ORBITAL ENERGIES
----------------

  NO   OCC          E(Eh)            E(eV)
   0   2.0000    -101.048866     -2749.6794
   1   2.0000    -101.048857     -2749.6792
   2   2.0000      -9.295337      -252.9390
   3   2.0000      -9.295332      -252.9388
   4   2.0000      -7.079081      -192.6316
   5   2.0000      -7.079000      -192.6294
   6   2.0000      -7.062628      -192.1839
   7   2.0000      -7.062628      -192.1839
   8   2.0000      -7.062627      -192.1838
   9   2.0000      -7.062627      -192.1838
  10   2.0000      -0.861799       -23.4507
  11   2.0000      -0.721975       -19.6459
  12   2.0000      -0.439295       -11.9538
  13   2.0000      -0.366572        -9.9749
  14   2.0000      -0.366572        -9.9749
  15   2.0000      -0.278031        -7.5656
  16   2.0000      -0.278031        -7.5656
  17   0.0000      -0.169417        -4.6101
  18   0.0000       0.028524         0.7762
  19   0.0000       0.029711         0.8085
  20   0.0000       0.042307         1.1512
  21   0.0000       0.042307         1.1512

MULLIKEN ATOMIC CHARGES
-----------------------
   0 Cl:   -0.000000
   1 Cl:    0.000000
Sum of atomic charges:   -0.0000000

LOEWDIN ATOMIC CHARGES
----------------------
   0 Cl:   -0.000000
   1 Cl:    0.000000

  Mayer bond orders larger than 0.100000
B(  0-Cl,  1-Cl) :   1.0318

Dispersion correction           -0.001344845
FINAL SINGLE POINT ENERGY      -920.438476869813

DIPOLE MOMENT
-------------
                                X             Y             Z
Electronic contribution:     -0.00000      -0.00000      -0.00000
Nuclear contribution   :      0.00000       0.00000       0.00000
                        -----------------------------------------
Total Dipole Moment    :     -0.00000      -0.00000      -0.00000
                        -----------------------------------------
Magnitude (a.u.)       :      0.00000
Magnitude (Debye)      :      0.00000

Rotational constants in cm-1:     0.000000     0.226737     0.226737
Rotational constants in MHz :     0.000000  6797.405627  6797.405627

                             ****ORCA TERMINATED NORMALLY****
TOTAL RUN TIME: 0 days 0 hours 0 minutes 2 seconds 405 msec
