                         Program Version 4.2.0 -  RELEASE  -
|  1> #
|  2> # 048 ri-DSD-BLYP/2013-D3BJ/Def2-TZVPPD
|  3> #
|  4> ! rijk ri-dsd-blyp/2013 d3bj def2-tzvppd def2/jk def2-tzvppd/c grid4 nofinalgrid
|  5>
|  6> *xyz 0 1
|  7> O          0.75742       -0.00510        0.75514
|  8> H         -1.01794        1.02757        1.02184
|  9> H         -0.96093       -0.60735        1.74144
| 10> C         -0.64191        0.00049        0.87802
| 11> H          0.38038        0.00572       -2.17342
| 12> H          0.12624       -0.00672       -2.88156
| 13> Al         2.47079       -0.00043        0.68709
| 14> H         -1.11404       -0.41418       -0.02857
| 15> *
| 16>
| 17> %maxcore 5000
| 18>
| 19> %pal
| 20> nprocs = 24
| 21> end
| 22>
| 23>
| 24>                          ****END OF INPUT****

CARTESIAN COORDINATES (ANGSTROEM)
---------------------------------
  O      0.757420   -0.005100    0.755140
  H     -1.017940    1.027570    1.021840
  H     -0.960930   -0.607350    1.741440
  C     -0.641910    0.000490    0.878020
  H      0.380380    0.005720   -2.173420
  H      0.126240   -0.006720   -2.881560
  Al     2.470790   -0.000430    0.687090
  H     -1.114040   -0.414180   -0.028570

 Total Charge           Charge          ....    0
 Multiplicity           Mult            ....    1
 Number of Electrons    NEL             ....   32
 Basis Dimension        Dim             ....  210

ORBITAL ENERGIES
----------------

  NO   OCC          E(Eh)            E(eV)
   0   2.0000     -57.596701     -1567.2859
   1   2.0000     -20.022167      -544.8309
   2   2.0000     -10.897203      -296.5280
   3   2.0000      -4.612183      -125.5039
   4   2.0000      -3.010661       -81.9243
   5   2.0000      -3.010650       -81.9239
   6   2.0000      -3.009299       -81.8872
   7   2.0000      -1.193762       -32.4839
   8   2.0000      -0.828603       -22.5474
   9   2.0000      -0.585265       -15.9259
  10   2.0000      -0.554855       -15.0984
  11   2.0000      -0.550307       -14.9746
  12   2.0000      -0.529755       -14.4154
  13   2.0000      -0.387260       -10.5379
  14   2.0000      -0.386947       -10.5294
  15   2.0000      -0.290973        -7.9178
  16   0.0000       0.019651         0.5347
  17   0.0000       0.020042         0.5454
  18   0.0000       0.048489         1.3195
  19   0.0000       0.057407         1.5621
  20   0.0000       0.070591         1.9209

MULLIKEN ATOMIC CHARGES
-----------------------
   0 O :   -0.104622
   1 H :    0.049966
   2 H :    0.031664
   3 C :    0.089620
   4 H :   -0.071284
   5 H :    0.050429
   6 Al:   -0.082043
   7 H :    0.036270
Sum of atomic charges:   -0.0000000

LOEWDIN ATOMIC CHARGES
----------------------
   0 O :   -0.552268
   1 H :   -0.001971
   2 H :   -0.003461
   3 C :    0.002229
   4 H :    0.008312
   5 H :    0.035654
   6 Al:    0.525325
   7 H :   -0.013819

  Mayer bond orders larger than 0.100000
B(  0-O ,  3-C ) :   0.6863 B(  0-O ,  6-Al) :   0.3241 B(  1-H ,  3-C ) :   1.0258
B(  2-H ,  3-C ) :   1.0337 B(  3-C ,  7-H ) :   1.0048 B(  4-H ,  5-H ) :   1.0082

MP2 TOTAL ENERGY:     -358.486869718 Eh
Dispersion correction           -0.004168665
FINAL SINGLE POINT ENERGY      -358.491038382653

DIPOLE MOMENT
-------------
                                X             Y             Z
Electronic contribution:      8.68289      -0.00599       5.31330
Nuclear contribution   :     -8.98536       0.01025      -5.24566
                        -----------------------------------------
Total Dipole Moment    :     -0.30246       0.00426       0.06764
                        -----------------------------------------
Magnitude (a.u.)       :      0.30996
Magnitude (Debye)      :      0.78786

Rotational constants in cm-1:     0.678137     0.159402     0.132325
Rotational constants in MHz : 20330.024381  4778.738837  3967.007595

                             ****ORCA TERMINATED NORMALLY****
TOTAL RUN TIME: 0 days 0 hours 0 minutes 4 seconds 813 msec
