                         Program Version 4.2.0 -  RELEASE  -
|  1> #
|  2> # 050 ri-DSD-BLYP/2013-D3BJ/Def2-TZVPPD
|  3> #
|  4> ! rijk ri-dsd-blyp/2013 d3bj def2-tzvppd def2/jk def2-tzvppd/c grid4 nofinalgrid
|  5>
|  6> *xyz 0 1
|  7> H          0.20940       -0.52586       -2.49943
|  8> Cl        -0.00687       -1.57667        0.66924
|  9> H         -0.20240       -1.10325       -2.75186
| 10> H         -1.52841        1.31136        0.17964
| 11> H          1.18008        1.27520       -0.42375
| 12> H          0.01798       -1.62546        1.96923
| 13> Al        -0.00655        1.11839        0.64244
| 14> H          0.33679        1.12629        2.21448
| 15> *
| 16>
| 17> %maxcore 5000
| 18>
| 19> %pal
| 20> nprocs = 24
| 21> end
| 22>
| 23>
| 24>                          ****END OF INPUT****

CARTESIAN COORDINATES (ANGSTROEM)
---------------------------------
  H      0.209400   -0.525860   -2.499430
  Cl    -0.006870   -1.576670    0.669240
  H     -0.202400   -1.103250   -2.751860
  H     -1.528410    1.311360    0.179640
  H      1.180080    1.275200   -0.423750
  H      0.017980   -1.625460    1.969230
  Al    -0.006550    1.118390    0.642440
  H      0.336790    1.126290    2.214480

 Total Charge           Charge          ....    0
 Multiplicity           Mult            ....    1
 Number of Electrons    NEL             ....   36
 Basis Dimension        Dim             ....  201

ORBITAL ENERGIES
----------------

  NO   OCC          E(Eh)            E(eV)
   0   2.0000    -103.712283     -2822.1547
   1   2.0000     -57.584248     -1566.9471
   2   2.0000     -10.228125      -278.3214
   3   2.0000      -7.801785      -212.2974
   4   2.0000      -7.798228      -212.2006
   5   2.0000      -7.797693      -212.1860
   6   2.0000      -4.603676      -125.2724
   7   2.0000      -3.007517       -81.8387
   8   2.0000      -3.002984       -81.7153
   9   2.0000      -3.002857       -81.7119
  10   2.0000      -1.070710       -29.1355
  11   2.0000      -0.617336       -16.7986
  12   2.0000      -0.540307       -14.7025
  13   2.0000      -0.531491       -14.4626
  14   2.0000      -0.476669       -12.9708
  15   2.0000      -0.456626       -12.4254
  16   2.0000      -0.373520       -10.1640
  17   2.0000      -0.369869       -10.0647
  18   0.0000       0.015209         0.4139
  19   0.0000       0.034288         0.9330
  20   0.0000       0.055326         1.5055
  21   0.0000       0.065739         1.7888
  22   0.0000       0.067596         1.8394

MULLIKEN ATOMIC CHARGES
-----------------------
   0 H :   -0.038094
   1 Cl:   -0.216202
   2 H :    0.027897
   3 H :   -0.240665
   4 H :   -0.247613
   5 H :    0.282892
   6 Al:    0.692600
   7 H :   -0.260815
Sum of atomic charges:    0.0000000

LOEWDIN ATOMIC CHARGES
----------------------
   0 H :    0.006320
   1 Cl:    0.519758
   2 H :    0.027913
   3 H :   -0.190030
   4 H :   -0.191590
   5 H :   -0.329151
   6 Al:    0.344882
   7 H :   -0.188102

  Mayer bond orders larger than 0.100000
B(  0-H ,  2-H ) :   1.0014 B(  1-Cl,  5-H ) :   0.9328 B(  1-Cl,  6-Al) :   0.1559
B(  3-H ,  6-Al) :   0.9247 B(  4-H ,  6-Al) :   0.9189 B(  6-Al,  7-H ) :   0.8974

MP2 TOTAL ENERGY:     -705.762619956 Eh
Dispersion correction           -0.004611744
FINAL SINGLE POINT ENERGY      -705.767231700101

DIPOLE MOMENT
-------------
                                X             Y             Z
Electronic contribution:     -0.04029      -3.62509       5.11336
Nuclear contribution   :      0.04784       2.78212      -4.67262
                        -----------------------------------------
Total Dipole Moment    :      0.00755      -0.84297       0.44074
                        -----------------------------------------
Magnitude (a.u.)       :      0.95126
Magnitude (Debye)      :      2.41791

Rotational constants in cm-1:     0.545363     0.134491     0.113645
Rotational constants in MHz : 16349.582447  4031.950699  3406.980673

                             ****ORCA TERMINATED NORMALLY****
TOTAL RUN TIME: 0 days 0 hours 0 minutes 4 seconds 615 msec
