                         Program Version 4.2.0 -  RELEASE  -
|  1> #
|  2> # 070 ri-DSD-BLYP/2013-D3BJ/Def2-TZVPPD
|  3> #
|  4> ! rijk ri-dsd-blyp/2013 d3bj def2-tzvppd def2/jk def2-tzvppd/c grid4 nofinalgrid
|  5>
|  6> *xyz 0 1
|  7> H          0.08530       -0.02655        1.60712
|  8> H          0.90656       -0.78582       -1.39861
|  9> Be        -0.05035        0.92778       -0.02639
| 10> H          0.07901        0.71807        1.80526
| 11> F         -0.04624       -1.68577        0.17900
| 12> C         -0.00461       -0.62157       -0.79461
| 13> H         -0.11623        2.26790        0.10895
| 14> H         -0.85344       -0.79405       -1.48072
| 15> *
| 16>
| 17> %maxcore 5000
| 18>
| 19> %pal
| 20> nprocs = 24
| 21> end
| 22>
| 23>
| 24>                          ****END OF INPUT****

CARTESIAN COORDINATES (ANGSTROEM)
---------------------------------
  H      0.085300   -0.026550    1.607120
  H      0.906560   -0.785820   -1.398610
  Be    -0.050350    0.927780   -0.026390
  H      0.079010    0.718070    1.805260
  F     -0.046240   -1.685770    0.179000
  C     -0.004610   -0.621570   -0.794610
  H     -0.116230    2.267900    0.108950
  H     -0.853440   -0.794050   -1.480720

 Total Charge           Charge          ....    0
 Multiplicity           Mult            ....    1
 Number of Electrons    NEL             ....   24
 Basis Dimension        Dim             ....  184

ORBITAL ENERGIES
----------------

  NO   OCC          E(Eh)            E(eV)
   0   2.0000     -25.686486      -698.9648
   1   2.0000     -10.893573      -296.4292
   2   2.0000      -4.444365      -120.9373
   3   2.0000      -1.416523       -38.5456
   4   2.0000      -0.825880       -22.4733
   5   2.0000      -0.638104       -17.3637
   6   2.0000      -0.592604       -16.1256
   7   2.0000      -0.581874       -15.8336
   8   2.0000      -0.553784       -15.0692
   9   2.0000      -0.454833       -12.3766
  10   2.0000      -0.412656       -11.2289
  11   2.0000      -0.383276       -10.4295
  12   0.0000       0.019530         0.5314
  13   0.0000       0.036644         0.9971
  14   0.0000       0.044256         1.2043
  15   0.0000       0.051503         1.4015
  16   0.0000       0.081840         2.2270

MULLIKEN ATOMIC CHARGES
-----------------------
   0 H :    0.095963
   1 H :   -0.059803
   2 Be:    0.176303
   3 H :   -0.074090
   4 F :   -0.351287
   5 C :    0.374772
   6 H :   -0.104301
   7 H :   -0.057557
Sum of atomic charges:    0.0000000

LOEWDIN ATOMIC CHARGES
----------------------
   0 H :    0.083324
   1 H :   -0.047838
   2 Be:    0.374343
   3 H :    0.073778
   4 F :   -0.224512
   5 C :   -0.100383
   6 H :   -0.110154
   7 H :   -0.048558

  Mayer bond orders larger than 0.100000
B(  0-H ,  2-Be) :   0.1147 B(  0-H ,  3-H ) :   0.9432 B(  1-H ,  5-C ) :   1.0248
B(  2-Be,  3-H ) :   0.1180 B(  2-Be,  5-C ) :   1.0465 B(  2-Be,  6-H ) :   0.8917
B(  4-F ,  5-C ) :   0.7169 B(  5-C ,  7-H ) :   1.0272

MP2 TOTAL ENERGY:     -155.537421391 Eh
Dispersion correction           -0.003675900
FINAL SINGLE POINT ENERGY      -155.541097290632

DIPOLE MOMENT
-------------
                                X             Y             Z
Electronic contribution:     -0.19490      -3.50788      -0.76963
Nuclear contribution   :      0.26588       3.83479       0.81982
                        -----------------------------------------
Total Dipole Moment    :      0.07098       0.32691       0.05019
                        -----------------------------------------
Magnitude (a.u.)       :      0.33827
Magnitude (Debye)      :      0.85982

Rotational constants in cm-1:     0.879452     0.304630     0.236523
Rotational constants in MHz : 26365.310047  9132.583609  7090.795310

                             ****ORCA TERMINATED NORMALLY****
TOTAL RUN TIME: 0 days 0 hours 0 minutes 3 seconds 993 msec
