                         Program Version 4.2.0 -  RELEASE  -
|  1> #
|  2> # 076 ri-DSD-BLYP/2013-D3BJ/Def2-TZVPPD
|  3> #
|  4> ! rijk ri-dsd-blyp/2013 d3bj def2-tzvppd def2/jk def2-tzvppd/c grid4 nofinalgrid
|  5>
|  6> *xyz 0 1
|  7> H         -0.10732        2.90062       -0.02721
|  8> H          0.35760       -1.90152        0.97790
|  9> Li        -0.27775        0.78724       -0.00029
| 10> H          0.84572       -0.46906       -0.34423
| 11> H         -1.10236       -0.68915        0.32212
| 12> B         -0.04346       -1.30148        0.00006
| 13> H          0.61490        2.68175        0.02928
| 14> H         -0.28734       -2.00840       -0.95762
| 15> *
| 16>
| 17> %maxcore 5000
| 18>
| 19> %pal
| 20> nprocs = 24
| 21> end
| 22>
| 23>
| 24>                          ****END OF INPUT****

CARTESIAN COORDINATES (ANGSTROEM)
---------------------------------
  H     -0.107320    2.900620   -0.027210
  H      0.357600   -1.901520    0.977900
  Li    -0.277750    0.787240   -0.000290
  H      0.845720   -0.469060   -0.344230
  H     -1.102360   -0.689150    0.322120
  B     -0.043460   -1.301480    0.000060
  H      0.614900    2.681750    0.029280
  H     -0.287340   -2.008400   -0.957620

 Total Charge           Charge          ....    0
 Multiplicity           Mult            ....    1
 Number of Electrons    NEL             ....   14
 Basis Dimension        Dim             ....  161

ORBITAL ENERGIES
----------------

  NO   OCC          E(Eh)            E(eV)
   0   2.0000      -7.200347      -195.9314
   1   2.0000      -2.311846       -62.9085
   2   2.0000      -0.635021       -17.2798
   3   2.0000      -0.611163       -16.6306
   4   2.0000      -0.383057       -10.4235
   5   2.0000      -0.369894       -10.0653
   6   2.0000      -0.356683        -9.7058
   7   0.0000      -0.002092        -0.0569
   8   0.0000       0.015003         0.4082
   9   0.0000       0.019296         0.5251
  10   0.0000       0.028946         0.7876
  11   0.0000       0.064272         1.7489

MULLIKEN ATOMIC CHARGES
-----------------------
   0 H :    0.027519
   1 H :   -0.073017
   2 Li:    0.735600
   3 H :   -0.249447
   4 H :   -0.212172
   5 B :   -0.167847
   6 H :    0.011413
   7 H :   -0.072049
Sum of atomic charges:    0.0000000

LOEWDIN ATOMIC CHARGES
----------------------
   0 H :    0.098866
   1 H :   -0.074038
   2 Li:    0.336035
   3 H :   -0.082644
   4 H :   -0.075483
   5 B :   -0.224892
   6 H :    0.096282
   7 H :   -0.074127

  Mayer bond orders larger than 0.100000
B(  0-H ,  6-H ) :   0.9586 B(  1-H ,  5-B ) :   0.9761 B(  2-Li,  3-H ) :   0.1126
B(  2-Li,  4-H ) :   0.1241 B(  2-Li,  5-B ) :   0.1277 B(  3-H ,  5-B ) :   0.8385
B(  4-H ,  5-B ) :   0.8444 B(  5-B ,  7-H ) :   0.9756

MP2 TOTAL ENERGY:      -35.899818490 Eh
Dispersion correction           -0.003782282
FINAL SINGLE POINT ENERGY       -35.903600772192

DIPOLE MOMENT
-------------
                                X             Y             Z
Electronic contribution:     -1.17956       0.82127      -0.00112
Nuclear contribution   :      0.92718       2.12684       0.00062
                        -----------------------------------------
Total Dipole Moment    :     -0.25239       2.94810      -0.00049
                        -----------------------------------------
Magnitude (a.u.)       :      2.95889
Magnitude (Debye)      :      7.52089

Rotational constants in cm-1:     3.344864     0.365518     0.359194
Rotational constants in MHz : 100276.510227 10957.945080 10768.366475

                             ****ORCA TERMINATED NORMALLY****
TOTAL RUN TIME: 0 days 0 hours 0 minutes 4 seconds 391 msec
