                         Program Version 4.2.0 -  RELEASE  -
|  1> #
|  2> # 088 ri-DSD-BLYP/2013-D3BJ/Def2-TZVPPD
|  3> #
|  4> ! rijk ri-dsd-blyp/2013 d3bj def2-tzvppd def2/jk def2-tzvppd/c grid4 nofinalgrid
|  5>
|  6> *xyz 0 1
|  7> C          0.81376        0.10372        0.34640
|  8> H          0.87654        0.17194        1.44377
|  9> H          1.67271        0.57624       -0.15360
| 10> N          0.56076       -1.37061        0.00951
| 11> C         -0.53618        0.54868       -0.29052
| 12> S         -2.13839       -0.48145        0.15104
| 13> H         -0.69523        1.33853       -1.02043
| 14> C         -0.55397       -0.88705       -0.48618
| 15> *
| 16>
| 17> %maxcore 5000
| 18>
| 19> %pal
| 20> nprocs = 24
| 21> end
| 22>
| 23>
| 24>                          ****END OF INPUT****

CARTESIAN COORDINATES (ANGSTROEM)
---------------------------------
  C      0.813760    0.103720    0.346400
  H      0.876540    0.171940    1.443770
  H      1.672710    0.576240   -0.153600
  N      0.560760   -1.370610    0.009510
  C     -0.536180    0.548680   -0.290520
  S     -2.138390   -0.481450    0.151040
  H     -0.695230    1.338530   -1.020430
  C     -0.553970   -0.887050   -0.486180

 Total Charge           Charge          ....    0
 Multiplicity           Mult            ....    1
 Number of Electrons    NEL             ....   44
 Basis Dimension        Dim             ....  250

ORBITAL ENERGIES
----------------

  NO   OCC          E(Eh)            E(eV)
   0   2.0000     -90.893158     -2473.3286
   1   2.0000     -15.135712      -411.8637
   2   2.0000     -10.967518      -298.4413
   3   2.0000     -10.934395      -297.5400
   4   2.0000     -10.921975      -297.2020
   5   2.0000      -8.634867      -234.9667
   6   2.0000      -6.418032      -174.6435
   7   2.0000      -6.417080      -174.6176
   8   2.0000      -6.413204      -174.5122
   9   2.0000      -1.199486       -32.6397
  10   2.0000      -0.992138       -26.9974
  11   2.0000      -0.876221       -23.8432
  12   2.0000      -0.764992       -20.8165
  13   2.0000      -0.654829       -17.8188
  14   2.0000      -0.596359       -16.2278
  15   2.0000      -0.570572       -15.5261
  16   2.0000      -0.557815       -15.1789
  17   2.0000      -0.464897       -12.6505
  18   2.0000      -0.424404       -11.5486
  19   2.0000      -0.414202       -11.2710
  20   2.0000      -0.337930        -9.1955
  21   2.0000      -0.317268        -8.6333
  22   0.0000      -0.013027        -0.3545
  23   0.0000       0.030618         0.8332
  24   0.0000       0.042698         1.1619
  25   0.0000       0.054543         1.4842
  26   0.0000       0.057952         1.5770

MULLIKEN ATOMIC CHARGES
-----------------------
   0 C :    0.327145
   1 H :    0.001690
   2 H :    0.036229
   3 N :   -0.550219
   4 C :   -0.006775
   5 S :   -0.226797
   6 H :    0.091777
   7 C :    0.326951
Sum of atomic charges:   -0.0000000

LOEWDIN ATOMIC CHARGES
----------------------
   0 C :   -0.031108
   1 H :    0.023054
   2 H :    0.019096
   3 N :    0.060543
   4 C :   -0.258214
   5 S :    0.854705
   6 H :   -0.018718
   7 C :   -0.649358

  Mayer bond orders larger than 0.100000
B(  0-C ,  1-H ) :   0.9870 B(  0-C ,  2-H ) :   0.9940 B(  0-C ,  3-N ) :   0.7323
B(  0-C ,  4-C ) :   0.8674 B(  0-C ,  7-C ) :   0.1670 B(  3-N ,  4-C ) :   0.1175
B(  3-N ,  7-C ) :   1.5127 B(  4-C ,  5-S ) :   0.8608 B(  4-C ,  6-H ) :   1.0063
B(  4-C ,  7-C ) :   0.9283 B(  5-S ,  7-C ) :   1.0190

MP2 TOTAL ENERGY:     -568.530688374 Eh
Dispersion correction           -0.007736907
FINAL SINGLE POINT ENERGY      -568.538425281146

DIPOLE MOMENT
-------------
                                X             Y             Z
Electronic contribution:     -3.83212      -2.03311      -0.40050
Nuclear contribution   :      3.84230       3.12311       0.24615
                        -----------------------------------------
Total Dipole Moment    :      0.01017       1.09000      -0.15435
                        -----------------------------------------
Magnitude (a.u.)       :      1.10092
Magnitude (Debye)      :      2.79832

Rotational constants in cm-1:     0.386346     0.125803     0.105869
Rotational constants in MHz : 11582.371237  3771.469962  3173.859054

                             ****ORCA TERMINATED NORMALLY****
TOTAL RUN TIME: 0 days 0 hours 0 minutes 5 seconds 892 msec
