                         Program Version 4.2.0 -  RELEASE  -
|  1> #
|  2> # 096 ri-DSD-BLYP/2013-D3BJ/Def2-TZVPPD
|  3> #
|  4> ! rijk ri-dsd-blyp/2013 d3bj def2-tzvppd def2/jk def2-tzvppd/c grid4 nofinalgrid
|  5>
|  6> *xyz 0 1
|  7> H          0.74842        1.26851        0.59882
|  8> C         -0.16355        0.74665        0.30940
|  9> H          0.74849       -1.26857        0.59856
| 10> C         -0.16356       -0.74663        0.30935
| 11> H          1.21141        0.00004       -1.60315
| 12> H         -1.08115        1.25625        0.60788
| 13> P         -0.21890        0.00004       -1.42860
| 14> H         -1.08115       -1.25629        0.60773
| 15> *
| 16>
| 17> %maxcore 5000
| 18>
| 19> %pal
| 20> nprocs = 24
| 21> end
| 22>
| 23>
| 24>                          ****END OF INPUT****

CARTESIAN COORDINATES (ANGSTROEM)
---------------------------------
  H      0.748420    1.268510    0.598820
  C     -0.163550    0.746650    0.309400
  H      0.748490   -1.268570    0.598560
  C     -0.163560   -0.746630    0.309350
  H      1.211410    0.000040   -1.603150
  H     -1.081150    1.256250    0.607880
  P     -0.218900    0.000040   -1.428600
  H     -1.081150   -1.256290    0.607730

 Total Charge           Charge          ....    0
 Multiplicity           Mult            ....    1
 Number of Electrons    NEL             ....   32
 Basis Dimension        Dim             ....  207

ORBITAL ENERGIES
----------------

  NO   OCC          E(Eh)            E(eV)
   0   2.0000     -78.905048     -2147.1155
   1   2.0000     -10.871231      -295.8212
   2   2.0000     -10.870657      -295.8056
   3   2.0000      -7.142261      -194.3508
   4   2.0000      -5.133359      -139.6858
   5   2.0000      -5.131765      -139.6424
   6   2.0000      -5.131163      -139.6260
   7   2.0000      -0.984850       -26.7991
   8   2.0000      -0.746927       -20.3249
   9   2.0000      -0.695685       -18.9306
  10   2.0000      -0.591192       -16.0871
  11   2.0000      -0.534511       -14.5448
  12   2.0000      -0.472783       -12.8651
  13   2.0000      -0.416544       -11.3347
  14   2.0000      -0.338773        -9.2185
  15   2.0000      -0.334763        -9.1094
  16   0.0000       0.050041         1.3617
  17   0.0000       0.054061         1.4711
  18   0.0000       0.068810         1.8724
  19   0.0000       0.091110         2.4792
  20   0.0000       0.103994         2.8298

MULLIKEN ATOMIC CHARGES
-----------------------
   0 H :    0.067566
   1 C :   -0.075819
   2 H :    0.067573
   3 C :   -0.075736
   4 H :   -0.040370
   5 H :    0.050621
   6 P :   -0.044459
   7 H :    0.050624
Sum of atomic charges:    0.0000000

LOEWDIN ATOMIC CHARGES
----------------------
   0 H :   -0.042988
   1 C :   -0.260245
   2 H :   -0.042954
   3 C :   -0.260272
   4 H :   -0.177105
   5 H :   -0.048783
   6 P :    0.881140
   7 H :   -0.048795

  Mayer bond orders larger than 0.100000
B(  0-H ,  1-C ) :   1.0080 B(  1-C ,  3-C ) :   0.8901 B(  1-C ,  5-H ) :   1.0301
B(  1-C ,  6-P ) :   0.8846 B(  2-H ,  3-C ) :   1.0080 B(  3-C ,  6-P ) :   0.8846
B(  3-C ,  7-H ) :   1.0300 B(  4-H ,  6-P ) :   1.0057

MP2 TOTAL ENERGY:     -420.255051828 Eh
Dispersion correction           -0.006271798
FINAL SINGLE POINT ENERGY      -420.261323625986

DIPOLE MOMENT
-------------
                                X             Y             Z
Electronic contribution:     -1.17267       0.00011      -3.87001
Nuclear contribution   :      1.35041      -0.00018       4.31337
                        -----------------------------------------
Total Dipole Moment    :      0.17774      -0.00007       0.44336
                        -----------------------------------------
Magnitude (a.u.)       :      0.47766
Magnitude (Debye)      :      1.21411

Rotational constants in cm-1:     0.669213     0.315945     0.248635
Rotational constants in MHz : 20062.492743  9471.799383  7453.892881

                             ****ORCA TERMINATED NORMALLY****
TOTAL RUN TIME: 0 days 0 hours 0 minutes 5 seconds 406 msec
