                         Program Version 4.2.0 -  RELEASE  -
|  1> #
|  2> # 104 ri-DSD-BLYP/2013-D3BJ/Def2-TZVPPD
|  3> #
|  4> ! rijk ri-dsd-blyp/2013 d3bj def2-tzvppd def2/jk def2-tzvppd/c grid4 nofinalgrid
|  5>
|  6> *xyz 0 2
|  7> C          0.18239        0.81792       -0.17289
|  8> H         -2.32613        0.04031        1.01174
|  9> H          2.24798        0.73105       -0.01871
| 10> C          1.34005        0.10819       -0.12066
| 11> H          0.11379        1.91914       -0.21133
| 12> Si        -1.43329       -0.14152       -0.20061
| 13> H         -1.02937       -1.64029       -0.13873
| 14> Li         0.90457       -1.83481       -0.14881
| 15> *
| 16>
| 17> %maxcore 5000
| 18>
| 19> %pal
| 20> nprocs = 24
| 21> end
| 22>
| 23>
| 24>                          ****END OF INPUT****

CARTESIAN COORDINATES (ANGSTROEM)
---------------------------------
  C      0.182390    0.817920   -0.172890
  H     -2.326130    0.040310    1.011740
  H      2.247980    0.731050   -0.018710
  C      1.340050    0.108190   -0.120660
  H      0.113790    1.919140   -0.211330
  Si    -1.433290   -0.141520   -0.200610
  H     -1.029370   -1.640290   -0.138730
  Li     0.904570   -1.834810   -0.148810

 Total Charge           Charge          ....    0
 Multiplicity           Mult            ....    2
 Number of Electrons    NEL             ....   33
 Basis Dimension        Dim             ....  212

ORBITAL ENERGIES
----------------
                 SPIN UP ORBITALS
  NO   OCC          E(Eh)            E(eV)
   0   1.0000     -67.820492     -1845.4894
   1   1.0000     -10.819138      -294.4037
   2   1.0000     -10.798964      -293.8548
   3   1.0000      -5.816377      -158.2717
   4   1.0000      -4.019049      -109.3639
   5   1.0000      -4.012379      -109.1824
   6   1.0000      -4.010493      -109.1311
   7   1.0000      -2.279943       -62.0404
   8   1.0000      -0.882486       -24.0137
   9   1.0000      -0.667280       -18.1576
  10   1.0000      -0.593578       -16.1521
  11   1.0000      -0.509590       -13.8667
  12   1.0000      -0.433323       -11.7913
  13   1.0000      -0.402406       -10.9500
  14   1.0000      -0.331994        -9.0340
  15   1.0000      -0.287555        -7.8248
  16   1.0000      -0.252155        -6.8615
  17   0.0000      -0.007626        -0.2075
  18   0.0000       0.025351         0.6898
  19   0.0000       0.030327         0.8252
  20   0.0000       0.044536         1.2119
  21   0.0000       0.071766         1.9529

                 SPIN DOWN ORBITALS
  NO   OCC          E(Eh)            E(eV)
   0   1.0000     -67.815681     -1845.3585
   1   1.0000     -10.819034      -294.4009
   2   1.0000     -10.795722      -293.7665
   3   1.0000      -5.810151      -158.1023
   4   1.0000      -4.009459      -109.1029
   5   1.0000      -4.007812      -109.0581
   6   1.0000      -4.002024      -108.9006
   7   1.0000      -2.280152       -62.0461
   8   1.0000      -0.875155       -23.8142
   9   1.0000      -0.649092       -17.6627
  10   1.0000      -0.579549       -15.7703
  11   1.0000      -0.502015       -13.6605
  12   1.0000      -0.424260       -11.5447
  13   1.0000      -0.393401       -10.7050
  14   1.0000      -0.305099        -8.3022
  15   1.0000      -0.275668        -7.5013
  16   0.0000      -0.009471        -0.2577
  17   0.0000      -0.004024        -0.1095
  18   0.0000       0.026182         0.7125
  19   0.0000       0.030796         0.8380
  20   0.0000       0.045558         1.2397

MULLIKEN ATOMIC CHARGES AND SPIN POPULATIONS
--------------------------------------------
   0 C :    0.015595   -0.060058
   1 H :   -0.130920    0.049652
   2 H :   -0.079017   -0.005101
   3 C :   -0.669858    0.191883
   4 H :    0.041052    0.008223
   5 Si:    0.371322    0.798817
   6 H :   -0.335461    0.020688
   7 Li:    0.787287   -0.004103
Sum of atomic charges         :    0.0000000

LOEWDIN ATOMIC CHARGES AND SPIN POPULATIONS
-------------------------------------------
   0 C :   -0.426874    0.067344
   1 H :   -0.164179    0.079655
   2 H :   -0.127124    0.016633
   3 C :   -0.153333    0.119867
   4 H :   -0.092807   -0.004504
   5 Si:    0.710922    0.648413
   6 H :   -0.144289    0.063364
   7 Li:    0.397683    0.009230

  Mayer bond orders larger than 0.100000
B(  0-C ,  3-C ) :   1.5217 B(  0-C ,  4-H ) :   1.0066 B(  0-C ,  5-Si) :   1.1096
B(  1-H ,  5-Si) :   0.9483 B(  2-H ,  3-C ) :   1.2130 B(  3-C ,  5-Si) :   0.1982
B(  3-C ,  7-Li) :   0.2157 B(  5-Si,  6-H ) :   0.7132 B(  6-H ,  7-Li) :   0.1197

MP2 TOTAL ENERGY:     -375.241067323 Eh
Dispersion correction           -0.008439641
FINAL SINGLE POINT ENERGY      -375.249506963236

DIPOLE MOMENT
-------------
                                X             Y             Z
Electronic contribution:      1.10625      -4.46722      -1.20047
Nuclear contribution   :     -0.90522       2.81558       1.17165
                        -----------------------------------------
Total Dipole Moment    :      0.20103      -1.65164      -0.02882
                        -----------------------------------------
Magnitude (a.u.)       :      1.66408
Magnitude (Debye)      :      4.22976

Rotational constants in cm-1:     0.419182     0.179284     0.128388
Rotational constants in MHz : 12566.751634  5374.809128  3848.967152

                             ****ORCA TERMINATED NORMALLY****
TOTAL RUN TIME: 0 days 0 hours 0 minutes 6 seconds 723 msec
