                         Program Version 4.2.0 -  RELEASE  -
|  1> #
|  2> # 111 ri-DSD-BLYP/2013-D3BJ/Def2-TZVPPD
|  3> #
|  4> ! rijk ri-dsd-blyp/2013 d3bj def2-tzvppd def2/jk def2-tzvppd/c grid4 nofinalgrid
|  5>
|  6> *xyz 0 2
|  7> N          0.85218        0.06581        1.54293
|  8> C         -0.45432        0.04016        1.51127
|  9> H          0.51389       -1.04630       -1.15231
| 10> H         -1.27128       -0.21181        2.19239
| 11> H          0.93075        0.61434       -1.62997
| 12> C          0.02563        0.43731        0.29642
| 13> C          0.17679        0.00817       -1.10677
| 14> H         -0.77364        0.09232       -1.65395
| 15> *
| 16>
| 17> %maxcore 5000
| 18>
| 19> %pal
| 20> nprocs = 24
| 21> end
| 22>
| 23>
| 24>                          ****END OF INPUT****

CARTESIAN COORDINATES (ANGSTROEM)
---------------------------------
  N      0.852180    0.065810    1.542930
  C     -0.454320    0.040160    1.511270
  H      0.513890   -1.046300   -1.152310
  H     -1.271280   -0.211810    2.192390
  H      0.930750    0.614340   -1.629970
  C      0.025630    0.437310    0.296420
  C      0.176790    0.008170   -1.106770
  H     -0.773640    0.092320   -1.653950

 Total Charge           Charge          ....    0
 Multiplicity           Mult            ....    2
 Number of Electrons    NEL             ....   29
 Basis Dimension        Dim             ....  216

ORBITAL ENERGIES
----------------
                 SPIN UP ORBITALS
  NO   OCC          E(Eh)            E(eV)
   0   1.0000     -15.147783      -412.1921
   1   1.0000     -10.925784      -297.3057
   2   1.0000     -10.907568      -296.8100
   3   1.0000     -10.869179      -295.7654
   4   1.0000      -1.200642       -32.6711
   5   1.0000      -0.923871       -25.1398
   6   1.0000      -0.749647       -20.3989
   7   1.0000      -0.714677       -19.4473
   8   1.0000      -0.582819       -15.8593
   9   1.0000      -0.562077       -15.2949
  10   1.0000      -0.531193       -14.4545
  11   1.0000      -0.495929       -13.4949
  12   1.0000      -0.458709       -12.4821
  13   1.0000      -0.375787       -10.2257
  14   1.0000      -0.282005        -7.6738
  15   0.0000       0.042683         1.1614
  16   0.0000       0.057714         1.5705
  17   0.0000       0.068856         1.8737
  18   0.0000       0.088772         2.4156
  19   0.0000       0.107075         2.9137

                 SPIN DOWN ORBITALS
  NO   OCC          E(Eh)            E(eV)
   0   1.0000     -15.131700      -411.7545
   1   1.0000     -10.933232      -297.5084
   2   1.0000     -10.889571      -296.3203
   3   1.0000     -10.869447      -295.7727
   4   1.0000      -1.175972       -31.9998
   5   1.0000      -0.909740       -24.7553
   6   1.0000      -0.739255       -20.1161
   7   1.0000      -0.692890       -18.8545
   8   1.0000      -0.568266       -15.4633
   9   1.0000      -0.526483       -14.3263
  10   1.0000      -0.524405       -14.2698
  11   1.0000      -0.462404       -12.5827
  12   1.0000      -0.427037       -11.6203
  13   1.0000      -0.360565        -9.8115
  14   0.0000       0.039043         1.0624
  15   0.0000       0.062024         1.6877
  16   0.0000       0.071600         1.9483
  17   0.0000       0.079274         2.1572
  18   0.0000       0.092607         2.5200

MULLIKEN ATOMIC CHARGES AND SPIN POPULATIONS
--------------------------------------------
   0 N :   -0.433631    0.552037
   1 C :   -0.029795   -0.306120
   2 H :    0.076593    0.061523
   3 H :    0.017054    0.022278
   4 H :    0.051663    0.020079
   5 C :    0.407476    0.711459
   6 C :   -0.147586   -0.056137
   7 H :    0.058226   -0.005119
Sum of atomic charges         :   -0.0000000

LOEWDIN ATOMIC CHARGES AND SPIN POPULATIONS
-------------------------------------------
   0 N :    0.119189    0.469011
   1 C :   -0.047342   -0.105251
   2 H :   -0.003074    0.025099
   3 H :    0.008002   -0.022625
   4 H :   -0.013749    0.007604
   5 C :   -0.158412    0.548631
   6 C :    0.109823    0.078509
   7 H :   -0.014436   -0.000978

  Mayer bond orders larger than 0.100000
B(  0-N ,  1-C ) :   1.6771 B(  0-N ,  5-C ) :   0.5952 B(  1-C ,  3-H ) :   1.0436
B(  1-C ,  5-C ) :   1.1024 B(  2-H ,  6-C ) :   0.9564 B(  4-H ,  6-C ) :   1.0178
B(  5-C ,  6-C ) :   0.8559 B(  6-C ,  7-H ) :   1.0186

MP2 TOTAL ENERGY:     -171.169282468 Eh
Dispersion correction           -0.004793510
FINAL SINGLE POINT ENERGY      -171.174075977434

DIPOLE MOMENT
-------------
                                X             Y             Z
Electronic contribution:      0.20079       0.72380       3.64895
Nuclear contribution   :     -1.13576      -0.94785      -4.02666
                        -----------------------------------------
Total Dipole Moment    :     -0.93497      -0.22405      -0.37771
                        -----------------------------------------
Magnitude (a.u.)       :      1.03297
Magnitude (Debye)      :      2.62561

Rotational constants in cm-1:     0.919406     0.218621     0.189338
Rotational constants in MHz : 27563.112958  6554.079895  5676.208610

                             ****ORCA TERMINATED NORMALLY****
TOTAL RUN TIME: 0 days 0 hours 0 minutes 7 seconds 749 msec
