                         Program Version 4.2.0 -  RELEASE  -
|  1> #
|  2> # 123 ri-DSD-BLYP/2013-D3BJ/Def2-TZVPPD
|  3> #
|  4> ! rijk ri-dsd-blyp/2013 d3bj def2-tzvppd def2/jk def2-tzvppd/c grid4 nofinalgrid
|  5>
|  6> *xyz 0 2
|  7> H         -0.05566       -1.00378        1.35004
|  8> H         -0.85108        0.57288        1.07820
|  9> C          0.00090       -0.05557        0.78344
| 10> H         -0.84105       -0.66759       -1.01558
| 11> H          0.91403        0.47335        1.08996
| 12> H          0.01842        1.61333       -1.60506
| 13> H          0.81267       -0.72579       -1.00914
| 14> N          0.00176       -0.20682       -0.67186
| 15> *
| 16>
| 17> %maxcore 5000
| 18>
| 19> %pal
| 20> nprocs = 24
| 21> end
| 22>
| 23>
| 24>                          ****END OF INPUT****

CARTESIAN COORDINATES (ANGSTROEM)
---------------------------------
  H     -0.055660   -1.003780    1.350040
  H     -0.851080    0.572880    1.078200
  C      0.000900   -0.055570    0.783440
  H     -0.841050   -0.667590   -1.015580
  H      0.914030    0.473350    1.089960
  H      0.018420    1.613330   -1.605060
  H      0.812670   -0.725790   -1.009140
  N      0.001760   -0.206820   -0.671860

 Total Charge           Charge          ....    0
 Multiplicity           Mult            ....    2
 Number of Electrons    NEL             ....   19
 Basis Dimension        Dim             ....  176

ORBITAL ENERGIES
----------------
                 SPIN UP ORBITALS
  NO   OCC          E(Eh)            E(eV)
   0   1.0000     -15.116081      -411.3295
   1   1.0000     -10.876577      -295.9667
   2   1.0000      -1.080737       -29.4083
   3   1.0000      -0.822423       -22.3793
   4   1.0000      -0.617524       -16.8037
   5   1.0000      -0.560332       -15.2474
   6   1.0000      -0.522911       -14.2291
   7   1.0000      -0.475246       -12.9321
   8   1.0000      -0.415156       -11.2970
   9   1.0000      -0.296190        -8.0597
  10   0.0000       0.050617         1.3774
  11   0.0000       0.072998         1.9864
  12   0.0000       0.104734         2.8499
  13   0.0000       0.125301         3.4096
  14   0.0000       0.141487         3.8501

                 SPIN DOWN ORBITALS
  NO   OCC          E(Eh)            E(eV)
   0   1.0000     -15.109958      -411.1629
   1   1.0000     -10.876769      -295.9719
   2   1.0000      -1.071702       -29.1625
   3   1.0000      -0.820151       -22.3174
   4   1.0000      -0.614635       -16.7251
   5   1.0000      -0.554749       -15.0955
   6   1.0000      -0.515790       -14.0353
   7   1.0000      -0.474591       -12.9143
   8   1.0000      -0.346803        -9.4370
   9   0.0000       0.031502         0.8572
  10   0.0000       0.063245         1.7210
  11   0.0000       0.083072         2.2605
  12   0.0000       0.105694         2.8761
  13   0.0000       0.128493         3.4965

MULLIKEN ATOMIC CHARGES AND SPIN POPULATIONS
--------------------------------------------
   0 H :    0.072597    0.009459
   1 H :    0.070208   -0.005985
   2 C :   -0.083108    0.001790
   3 H :    0.136250   -0.015680
   4 H :    0.068741   -0.004035
   5 H :   -0.044122    0.937308
   6 H :    0.137961   -0.016429
   7 N :   -0.358526    0.093572
Sum of atomic charges         :    0.0000000

LOEWDIN ATOMIC CHARGES AND SPIN POPULATIONS
-------------------------------------------
   0 H :   -0.018281    0.002972
   1 H :   -0.016149    0.004194
   2 C :    0.046873    0.011503
   3 H :   -0.104188    0.009490
   4 H :   -0.015197    0.003300
   5 H :    0.037201    0.782433
   6 H :   -0.103230    0.008854
   7 N :    0.172971    0.177254

  Mayer bond orders larger than 0.100000
B(  0-H ,  2-C ) :   1.0268 B(  1-H ,  2-C ) :   1.0170 B(  2-C ,  4-H ) :   1.0147
B(  2-C ,  7-N ) :   0.8221 B(  3-H ,  7-N ) :   1.0415 B(  5-H ,  7-N ) :   0.1863
B(  6-H ,  7-N ) :   1.0416

MP2 TOTAL ENERGY:      -96.271829795 Eh
Dispersion correction           -0.003027863
FINAL SINGLE POINT ENERGY       -96.274857658696

DIPOLE MOMENT
-------------
                                X             Y             Z
Electronic contribution:     -0.00835      -1.61206       0.45723
Nuclear contribution   :     -0.00825       0.82489      -0.08847
                        -----------------------------------------
Total Dipole Moment    :     -0.01661      -0.78718       0.36876
                        -----------------------------------------
Magnitude (a.u.)       :      0.86943
Magnitude (Debye)      :      2.20992

Rotational constants in cm-1:     2.000356     0.660608     0.601270
Rotational constants in MHz : 59969.149740 19804.516397 18025.616086

                             ****ORCA TERMINATED NORMALLY****
TOTAL RUN TIME: 0 days 0 hours 0 minutes 4 seconds 637 msec
