                         Program Version 4.2.0 -  RELEASE  -
|  1> #
|  2> # 125 ri-DSD-BLYP/2013-D3BJ/Def2-TZVPPD
|  3> #
|  4> ! rijk ri-dsd-blyp/2013 d3bj def2-tzvppd def2/jk def2-tzvppd/c grid4 nofinalgrid
|  5>
|  6> *xyz 0 1
|  7> Li        -0.48880       -0.51538       -0.00659
|  8> H         -0.55944        2.54233       -0.00436
|  9> H         -2.17580       -1.82520        0.01329
| 10> C         -0.08896        1.54088       -0.00480
| 11> H         -1.56083       -2.26841        0.00934
| 12> Cl         1.44004       -1.55839       -0.00318
| 13> H          1.87023        0.32576       -0.00203
| 14> S          1.56356        1.75840       -0.00167
| 15> *
| 16>
| 17> %maxcore 5000
| 18>
| 19> %pal
| 20> nprocs = 24
| 21> end
| 22>
| 23>
| 24>                          ****END OF INPUT****

CARTESIAN COORDINATES (ANGSTROEM)
---------------------------------
  Li    -0.488800   -0.515380   -0.006590
  H     -0.559440    2.542330   -0.004360
  H     -2.175800   -1.825200    0.013290
  C     -0.088960    1.540880   -0.004800
  H     -1.560830   -2.268410    0.009340
  Cl     1.440040   -1.558390   -0.003180
  H      1.870230    0.325760   -0.002030
  S      1.563560    1.758400   -0.001670

 Total Charge           Charge          ....    0
 Multiplicity           Mult            ....    1
 Number of Electrons    NEL             ....   46
 Basis Dimension        Dim             ....  229

ORBITAL ENERGIES
----------------

  NO   OCC          E(Eh)            E(eV)
   0   2.0000    -103.557598     -2817.9455
   1   2.0000     -90.892849     -2473.3202
   2   2.0000     -10.928130      -297.3695
   3   2.0000     -10.074634      -274.1447
   4   2.0000      -8.637082      -235.0270
   5   2.0000      -7.646164      -208.0627
   6   2.0000      -7.645921      -208.0561
   7   2.0000      -7.645630      -208.0482
   8   2.0000      -6.419534      -174.6844
   9   2.0000      -6.418921      -174.6677
  10   2.0000      -6.417855      -174.6387
  11   2.0000      -2.269098       -61.7453
  12   2.0000      -0.987829       -26.8802
  13   2.0000      -0.899749       -24.4834
  14   2.0000      -0.737057       -20.0563
  15   2.0000      -0.596062       -16.2197
  16   2.0000      -0.531428       -14.4609
  17   2.0000      -0.513836       -13.9822
  18   2.0000      -0.406794       -11.0694
  19   2.0000      -0.378772       -10.3069
  20   2.0000      -0.367011        -9.9869
  21   2.0000      -0.347244        -9.4490
  22   2.0000      -0.327158        -8.9024
  23   0.0000      -0.024494        -0.6665
  24   0.0000       0.014191         0.3862
  25   0.0000       0.030022         0.8169
  26   0.0000       0.032380         0.8811
  27   0.0000       0.041732         1.1356

MULLIKEN ATOMIC CHARGES
-----------------------
   0 Li:    0.787964
   1 H :   -0.029841
   2 H :   -0.043215
   3 C :   -0.182581
   4 H :    0.073815
   5 Cl:   -0.788731
   6 H :    0.308076
   7 S :   -0.125487
Sum of atomic charges:    0.0000000

LOEWDIN ATOMIC CHARGES
----------------------
   0 Li:   -0.012815
   1 H :   -0.163952
   2 H :    0.092851
   3 C :   -0.344409
   4 H :    0.066947
   5 Cl:   -0.059127
   6 H :   -0.411294
   7 S :    0.831799

  Mayer bond orders larger than 0.100000
B(  0-Li,  3-C ) :   0.1078 B(  0-Li,  5-Cl) :   0.1992 B(  1-H ,  3-C ) :   1.1079
B(  2-H ,  4-H ) :   0.9603 B(  3-C ,  7-S ) :   1.6150 B(  5-Cl,  6-H ) :   0.1254
B(  6-H ,  7-S ) :   0.7722

MP2 TOTAL ENERGY:     -905.934107483 Eh
Dispersion correction           -0.008270104
FINAL SINGLE POINT ENERGY      -905.942377586845

DIPOLE MOMENT
-------------
                                X             Y             Z
Electronic contribution:      3.68710       0.01362      -0.03085
Nuclear contribution   :     -5.38329       1.10078       0.02957
                        -----------------------------------------
Total Dipole Moment    :     -1.69619       1.11440      -0.00129
                        -----------------------------------------
Magnitude (a.u.)       :      2.02952
Magnitude (Debye)      :      5.15863

Rotational constants in cm-1:     0.253463     0.073830     0.057176
Rotational constants in MHz :  7598.615767  2213.361097  1714.083710

                             ****ORCA TERMINATED NORMALLY****
TOTAL RUN TIME: 0 days 0 hours 0 minutes 5 seconds 993 msec
