                         Program Version 4.2.0 -  RELEASE  -
|  1> #
|  2> # 136 ri-DSD-BLYP/2013-D3BJ/Def2-TZVPPD
|  3> #
|  4> ! rijk ri-dsd-blyp/2013 d3bj def2-tzvppd def2/jk def2-tzvppd/c grid4 nofinalgrid
|  5>
|  6> *xyz 0 1
|  7> H         -0.64763        2.95877       -0.31431
|  8> H         -0.38809        2.29902       -0.56811
|  9> H         -0.46982        0.02713        1.23682
| 10> H         -0.44619       -2.23309       -1.25807
| 11> H          1.15514       -0.83076        1.35211
| 12> O          0.58676       -0.20120       -0.67466
| 13> C          0.25357       -0.64235        0.76247
| 14> B         -0.04374       -1.37752       -0.53625
| 15> *
| 16>
| 17> %maxcore 5000
| 18>
| 19> %pal
| 20> nprocs = 24
| 21> end
| 22>
| 23>
| 24>                          ****END OF INPUT****

CARTESIAN COORDINATES (ANGSTROEM)
---------------------------------
  H     -0.647630    2.958770   -0.314310
  H     -0.388090    2.299020   -0.568110
  H     -0.469820    0.027130    1.236820
  H     -0.446190   -2.233090   -1.258070
  H      1.155140   -0.830760    1.352110
  O      0.586760   -0.201200   -0.674660
  C      0.253570   -0.642350    0.762470
  B     -0.043740   -1.377520   -0.536250

 Total Charge           Charge          ....    0
 Multiplicity           Mult            ....    1
 Number of Electrons    NEL             ....   24
 Basis Dimension        Dim             ....  199

ORBITAL ENERGIES
----------------

  NO   OCC          E(Eh)            E(eV)
   0   2.0000     -20.074908      -546.2660
   1   2.0000     -10.901718      -296.6508
   2   2.0000      -7.337754      -199.6704
   3   2.0000      -1.262219       -34.3467
   4   2.0000      -0.821601       -22.3569
   5   2.0000      -0.636658       -17.3243
   6   2.0000      -0.583898       -15.8887
   7   2.0000      -0.569414       -15.4946
   8   2.0000      -0.522397       -14.2152
   9   2.0000      -0.490835       -13.3563
  10   2.0000      -0.429928       -11.6989
  11   2.0000      -0.383922       -10.4470
  12   0.0000       0.036800         1.0014
  13   0.0000       0.047080         1.2811
  14   0.0000       0.059292         1.6134
  15   0.0000       0.076017         2.0685
  16   0.0000       0.101738         2.7684

MULLIKEN ATOMIC CHARGES
-----------------------
   0 H :    0.004452
   1 H :   -0.014387
   2 H :    0.038308
   3 H :    0.019096
   4 H :    0.018120
   5 O :   -0.496123
   6 C :    0.100151
   7 B :    0.330384
Sum of atomic charges:   -0.0000000

LOEWDIN ATOMIC CHARGES
----------------------
   0 H :    0.031226
   1 H :    0.012049
   2 H :   -0.017300
   3 H :    0.021943
   4 H :   -0.013104
   5 O :    0.001215
   6 C :    0.140695
   7 B :   -0.176724

  Mayer bond orders larger than 0.100000
B(  0-H ,  1-H ) :   1.0070 B(  2-H ,  6-C ) :   0.9965 B(  3-H ,  7-B ) :   0.9724
B(  4-H ,  6-C ) :   1.0227 B(  5-O ,  6-C ) :   0.7488 B(  5-O ,  7-B ) :   1.2298
B(  6-C ,  7-B ) :   1.0059

MP2 TOTAL ENERGY:     -141.022641171 Eh
Dispersion correction           -0.003061044
FINAL SINGLE POINT ENERGY      -141.025702214876

DIPOLE MOMENT
-------------
                                X             Y             Z
Electronic contribution:      1.47274      -5.72409      -1.01586
Nuclear contribution   :     -1.71035       5.24617       1.44476
                        -----------------------------------------
Total Dipole Moment    :     -0.23760      -0.47792       0.42890
                        -----------------------------------------
Magnitude (a.u.)       :      0.68470
Magnitude (Debye)      :      1.74038

Rotational constants in cm-1:     0.613602     0.430998     0.306642
Rotational constants in MHz : 18395.316675 12920.983545  9192.908699

                             ****ORCA TERMINATED NORMALLY****
TOTAL RUN TIME: 0 days 0 hours 0 minutes 4 seconds 418 msec
