                         Program Version 4.2.0 -  RELEASE  -
|  1> #
|  2> # 138 ri-DSD-BLYP/2013-D3BJ/Def2-TZVPPD
|  3> #
|  4> ! rijk ri-dsd-blyp/2013 d3bj def2-tzvppd def2/jk def2-tzvppd/c grid4 nofinalgrid
|  5>
|  6> *xyz 0 1
|  7> H          0.64849       -1.47778       -0.13722
|  8> H         -0.62659       -0.18590       -3.09890
|  9> H         -0.40094       -0.71477       -2.61128
| 10> H          0.74472        0.82794        2.20080
| 11> H          0.41684       -1.04544        0.48242
| 12> H         -0.86873        0.85706        2.13389
| 13> Na         0.12711        1.09566       -0.53418
| 14> N         -0.04090        0.64323        1.56447
| 15> *
| 16>
| 17> %maxcore 5000
| 18>
| 19> %pal
| 20> nprocs = 24
| 21> end
| 22>
| 23>
| 24>                          ****END OF INPUT****

CARTESIAN COORDINATES (ANGSTROEM)
---------------------------------
  H      0.648490   -1.477780   -0.137220
  H     -0.626590   -0.185900   -3.098900
  H     -0.400940   -0.714770   -2.611280
  H      0.744720    0.827940    2.200800
  H      0.416840   -1.045440    0.482420
  H     -0.868730    0.857060    2.133890
  Na     0.127110    1.095660   -0.534180
  N     -0.040900    0.643230    1.564470

 Total Charge           Charge          ....    0
 Multiplicity           Mult            ....    1
 Number of Electrons    NEL             ....   24
 Basis Dimension        Dim             ....  174

ORBITAL ENERGIES
----------------

  NO   OCC          E(Eh)            E(eV)
   0   2.0000     -39.749691     -1081.6441
   1   2.0000     -14.980004      -407.6266
   2   2.0000      -2.578328       -70.1599
   3   2.0000      -1.377783       -37.4914
   4   2.0000      -1.377356       -37.4798
   5   2.0000      -1.374945       -37.4141
   6   2.0000      -0.877931       -23.8897
   7   2.0000      -0.583338       -15.8734
   8   2.0000      -0.504675       -13.7329
   9   2.0000      -0.450128       -12.2486
  10   2.0000      -0.322583        -8.7779
  11   2.0000      -0.226903        -6.1743
  12   0.0000      -0.011083        -0.3016
  13   0.0000       0.013369         0.3638
  14   0.0000       0.019346         0.5264
  15   0.0000       0.027208         0.7404
  16   0.0000       0.054330         1.4784

MULLIKEN ATOMIC CHARGES
-----------------------
   0 H :   -0.156697
   1 H :   -0.001509
   2 H :    0.014421
   3 H :   -0.015502
   4 H :    0.116290
   5 H :   -0.052610
   6 Na:    0.832168
   7 N :   -0.736559
Sum of atomic charges:    0.0000000

LOEWDIN ATOMIC CHARGES
----------------------
   0 H :    0.040299
   1 H :    0.048305
   2 H :    0.033861
   3 H :   -0.297808
   4 H :   -0.058252
   5 H :   -0.299206
   6 Na:    0.529471
   7 N :    0.003329

  Mayer bond orders larger than 0.100000
B(  0-H ,  4-H ) :   1.0280 B(  1-H ,  2-H ) :   0.9909 B(  3-H ,  7-N ) :   1.2199
B(  5-H ,  7-N ) :   1.2689 B(  6-Na,  7-N ) :   0.2275

MP2 TOTAL ENERGY:     -220.415953617 Eh
Dispersion correction           -0.003471385
FINAL SINGLE POINT ENERGY      -220.419425002689

DIPOLE MOMENT
-------------
                                X             Y             Z
Electronic contribution:      0.55840       7.04194      -1.07194
Nuclear contribution   :     -0.44551      -6.18803      -1.41111
                        -----------------------------------------
Total Dipole Moment    :      0.11289       0.85391      -2.48305
                        -----------------------------------------
Magnitude (a.u.)       :      2.62820
Magnitude (Debye)      :      6.68035

Rotational constants in cm-1:     0.993150     0.247328     0.211706
Rotational constants in MHz : 29773.882147  7414.712908  6346.774487

                             ****ORCA TERMINATED NORMALLY****
TOTAL RUN TIME: 0 days 0 hours 0 minutes 5 seconds 411 msec
