                         Program Version 4.2.0 -  RELEASE  -
|  1> #
|  2> # 143 ri-DSD-BLYP/2013-D3BJ/Def2-TZVPPD
|  3> #
|  4> ! rijk ri-dsd-blyp/2013 d3bj def2-tzvppd def2/jk def2-tzvppd/c grid4 nofinalgrid
|  5>
|  6> *xyz 0 1
|  7> H          1.52165        0.00105        0.54476
|  8> C         -0.07322       -0.00002       -0.82132
|  9> C         -0.09157        0.00017        1.71374
| 10> H          0.24008        0.90261       -1.36729
| 11> N          0.49648       -0.00048        0.54416
| 12> H          0.26500       -0.88652       -1.37867
| 13> H         -1.19216       -0.00126        1.49873
| 14> H         -1.16627       -0.01555       -0.73412
| 15> *
| 16>
| 17> %maxcore 5000
| 18>
| 19> %pal
| 20> nprocs = 24
| 21> end
| 22>
| 23>
| 24>                          ****END OF INPUT****

CARTESIAN COORDINATES (ANGSTROEM)
---------------------------------
  H      1.521650    0.001050    0.544760
  C     -0.073220   -0.000020   -0.821320
  C     -0.091570    0.000170    1.713740
  H      0.240080    0.902610   -1.367290
  N      0.496480   -0.000480    0.544160
  H      0.265000   -0.886520   -1.378670
  H     -1.192160   -0.001260    1.498730
  H     -1.166270   -0.015550   -0.734120

 Total Charge           Charge          ....    0
 Multiplicity           Mult            ....    1
 Number of Electrons    NEL             ....   24
 Basis Dimension        Dim             ....  196

ORBITAL ENERGIES
----------------

  NO   OCC          E(Eh)            E(eV)
   0   2.0000     -15.172621      -412.8680
   1   2.0000     -10.902522      -296.6727
   2   2.0000     -10.865081      -295.6539
   3   2.0000      -1.149871       -31.2896
   4   2.0000      -0.889173       -24.1956
   5   2.0000      -0.760634       -20.6979
   6   2.0000      -0.605746       -16.4832
   7   2.0000      -0.565792       -15.3960
   8   2.0000      -0.546475       -14.8704
   9   2.0000      -0.503815       -13.7095
  10   2.0000      -0.409832       -11.1521
  11   2.0000      -0.296141        -8.0584
  12   0.0000       0.042870         1.1666
  13   0.0000       0.074152         2.0178
  14   0.0000       0.077997         2.1224
  15   0.0000       0.089709         2.4411
  16   0.0000       0.116121         3.1598

MULLIKEN ATOMIC CHARGES
-----------------------
   0 H :    0.102233
   1 C :   -0.183751
   2 C :   -0.080264
   3 H :    0.088476
   4 N :   -0.063195
   5 H :    0.087330
   6 H :   -0.046012
   7 H :    0.095183
Sum of atomic charges:   -0.0000000

LOEWDIN ATOMIC CHARGES
----------------------
   0 H :   -0.059754
   1 C :    0.139070
   2 C :    0.084711
   3 H :   -0.005025
   4 N :   -0.036291
   5 H :   -0.005045
   6 H :   -0.109186
   7 H :   -0.008481

  Mayer bond orders larger than 0.100000
B(  0-H ,  4-N ) :   1.0348 B(  1-C ,  3-H ) :   1.0197 B(  1-C ,  4-N ) :   0.8566
B(  1-C ,  5-H ) :   1.0193 B(  1-C ,  7-H ) :   0.9909 B(  2-C ,  4-N ) :   1.5618
B(  2-C ,  6-H ) :   1.0198

MP2 TOTAL ENERGY:     -133.760754097 Eh
Dispersion correction           -0.003853615
FINAL SINGLE POINT ENERGY      -133.764607711962

DIPOLE MOMENT
-------------
                                X             Y             Z
Electronic contribution:      0.89430      -0.00079       1.70301
Nuclear contribution   :     -0.81448       0.00081      -3.18683
                        -----------------------------------------
Total Dipole Moment    :      0.07982       0.00002      -1.48382
                        -----------------------------------------
Magnitude (a.u.)       :      1.48597
Magnitude (Debye)      :      3.77703

Rotational constants in cm-1:     1.686117     0.341111     0.300010
Rotational constants in MHz : 50548.520534 10226.261318  8994.065933

                             ****ORCA TERMINATED NORMALLY****
TOTAL RUN TIME: 0 days 0 hours 0 minutes 4 seconds 192 msec
