                         Program Version 4.2.0 -  RELEASE  -
|  1> #
|  2> # 166_h ri-DSD-BLYP/2013-D3BJ/Def2-TZVPPD
|  3> #
|  4> ! rijk ri-dsd-blyp/2013 d3bj def2-tzvppd def2/jk def2-tzvppd/c grid4 nofinalgrid
|  5>
|  6> *xyz 0 1
|  7> H          0.00000        0.00000        0.37586
|  8> H          0.00000        0.00000       -0.37586
|  9> *
| 10>
| 11> %maxcore 5000
| 12>
| 13> %pal
| 14> nprocs = 24
| 15> end
| 16>
| 17>
| 18>                          ****END OF INPUT****

CARTESIAN COORDINATES (ANGSTROEM)
---------------------------------
  H      0.000000    0.000000    0.375860
  H      0.000000    0.000000   -0.375860

 Total Charge           Charge          ....    0
 Multiplicity           Mult            ....    1
 Number of Electrons    NEL             ....    2
 Basis Dimension        Dim             ....   34

ORBITAL ENERGIES
----------------

  NO   OCC          E(Eh)            E(eV)
   0   2.0000      -0.536107       -14.5882
   1   0.0000       0.096283         2.6200
   2   0.0000       0.163824         4.4579
   3   0.0000       0.163824         4.4579
   4   0.0000       0.195552         5.3212
   5   0.0000       0.285111         7.7583

MULLIKEN ATOMIC CHARGES
-----------------------
   0 H :   -0.000000
   1 H :    0.000000
Sum of atomic charges:    0.0000000

LOEWDIN ATOMIC CHARGES
----------------------
   0 H :   -0.000000
   1 H :    0.000000

  Mayer bond orders larger than 0.100000
B(  0-H ,  1-H ) :   1.0000

MP2 TOTAL ENERGY:       -1.169335704 Eh
Dispersion correction           -0.000072627
FINAL SINGLE POINT ENERGY        -1.169408330964

DIPOLE MOMENT
-------------
                                X             Y             Z
Electronic contribution:      0.00000      -0.00000      -0.00000
Nuclear contribution   :      0.00000       0.00000       0.00000
                        -----------------------------------------
Total Dipole Moment    :      0.00000      -0.00000      -0.00000
                        -----------------------------------------
Magnitude (a.u.)       :      0.00000
Magnitude (Debye)      :      0.00000

Rotational constants in cm-1:     0.000000    59.190792    59.190792
Rotational constants in MHz :     0.000000 1774495.316074 1774495.316074

                             ****ORCA TERMINATED NORMALLY****
TOTAL RUN TIME: 0 days 0 hours 0 minutes 3 seconds 238 msec
