                         Program Version 4.2.0 -  RELEASE  -
|  1> #
|  2> # 167_li ri-DSD-BLYP/2013-D3BJ/Def2-TZVPPD
|  3> #
|  4> ! rijk ri-dsd-blyp/2013 d3bj def2-tzvppd def2/jk def2-tzvppd/c grid4 nofinalgrid
|  5>
|  6> *xyz 0 1
|  7> Li         0.00000        0.00000        0.80730
|  8> H          0.00000        0.00000       -0.80730
|  9> *
| 10>
| 11> %maxcore 5000
| 12>
| 13> %pal
| 14> nprocs = 24
| 15> end
| 16>
| 17>
| 18>                          ****END OF INPUT****

CARTESIAN COORDINATES (ANGSTROEM)
---------------------------------
  Li     0.000000    0.000000    0.807300
  H      0.000000    0.000000   -0.807300

 Total Charge           Charge          ....    0
 Multiplicity           Mult            ....    1
 Number of Electrons    NEL             ....    4
 Basis Dimension        Dim             ....   39

ORBITAL ENERGIES
----------------

  NO   OCC          E(Eh)            E(eV)
   0   2.0000      -2.291969       -62.3677
   1   2.0000      -0.263659        -7.1745
   2   0.0000      -0.016012        -0.4357
   3   0.0000       0.022922         0.6237
   4   0.0000       0.022922         0.6237
   5   0.0000       0.059122         1.6088
   6   0.0000       0.105530         2.8716

MULLIKEN ATOMIC CHARGES
-----------------------
   0 Li:    0.624639
   1 H :   -0.624639
Sum of atomic charges:    0.0000000

LOEWDIN ATOMIC CHARGES
----------------------
   0 Li:    0.303902
   1 H :   -0.303902

  Mayer bond orders larger than 0.100000
B(  0-Li,  1-H ) :   0.6142

MP2 TOTAL ENERGY:       -8.062336557 Eh
Dispersion correction           -0.000334684
FINAL SINGLE POINT ENERGY        -8.062671241143

DIPOLE MOMENT
-------------
                                X             Y             Z
Electronic contribution:     -0.00000      -0.00000       3.83264
Nuclear contribution   :      0.00000       0.00000      -1.50351
                        -----------------------------------------
Total Dipole Moment    :     -0.00000      -0.00000       2.32914
                        -----------------------------------------
Magnitude (a.u.)       :      2.32914
Magnitude (Debye)      :      5.92019

Rotational constants in cm-1:     0.000000     7.346778     7.346778
Rotational constants in MHz :     0.000000 220250.867747 220250.867747

                             ****ORCA TERMINATED NORMALLY****
TOTAL RUN TIME: 0 days 0 hours 0 minutes 3 seconds 255 msec
