                         Program Version 4.2.0 -  RELEASE  -
|  1> #
|  2> # 168_be ri-DSD-BLYP/2013-D3BJ/Def2-TZVPPD
|  3> #
|  4> ! rijk ri-dsd-blyp/2013 d3bj def2-tzvppd def2/jk def2-tzvppd/c grid4 nofinalgrid
|  5>
|  6> *xyz 0 1
|  7> Be         0.00000        0.00000        0.00000
|  8> H          0.00000        0.00000       -1.34402
|  9> H          0.00000        0.00000        1.34402
| 10> *
| 11>
| 12> %maxcore 5000
| 13>
| 14> %pal
| 15> nprocs = 24
| 16> end
| 17>
| 18>
| 19>                          ****END OF INPUT****

CARTESIAN COORDINATES (ANGSTROEM)
---------------------------------
  Be     0.000000    0.000000    0.000000
  H      0.000000    0.000000   -1.344020
  H      0.000000    0.000000    1.344020

 Total Charge           Charge          ....    0
 Multiplicity           Mult            ....    1
 Number of Electrons    NEL             ....    6
 Basis Dimension        Dim             ....   56

ORBITAL ENERGIES
----------------

  NO   OCC          E(Eh)            E(eV)
   0   2.0000      -4.454608      -121.2161
   1   2.0000      -0.441628       -12.0173
   2   2.0000      -0.401814       -10.9339
   3   0.0000       0.015935         0.4336
   4   0.0000       0.015935         0.4336
   5   0.0000       0.050176         1.3654
   6   0.0000       0.054524         1.4837
   7   0.0000       0.098748         2.6871

MULLIKEN ATOMIC CHARGES
-----------------------
   0 Be:    0.219070
   1 H :   -0.109535
   2 H :   -0.109535
Sum of atomic charges:   -0.0000000

LOEWDIN ATOMIC CHARGES
----------------------
   0 Be:    0.367130
   1 H :   -0.183565
   2 H :   -0.183565

  Mayer bond orders larger than 0.100000
B(  0-Be,  1-H ) :   0.9690 B(  0-Be,  2-H ) :   0.9690 B(  1-H ,  2-H ) :   0.1109

MP2 TOTAL ENERGY:      -15.887091520 Eh
Dispersion correction           -0.000627938
FINAL SINGLE POINT ENERGY       -15.887719458621

DIPOLE MOMENT
-------------
                                X             Y             Z
Electronic contribution:     -0.00000       0.00000       0.00000
Nuclear contribution   :      0.00000       0.00000       0.00000
                        -----------------------------------------
Total Dipole Moment    :     -0.00000       0.00000       0.00000
                        -----------------------------------------
Magnitude (a.u.)       :      0.00000
Magnitude (Debye)      :      0.00000

Rotational constants in cm-1:     0.000000     4.629082     4.629082
Rotational constants in MHz :     0.000000 138776.398767 138776.398767

                             ****ORCA TERMINATED NORMALLY****
TOTAL RUN TIME: 0 days 0 hours 0 minutes 2 seconds 830 msec
