                         Program Version 4.2.0 -  RELEASE  -
|  1> #
|  2> # 169_b ri-DSD-BLYP/2013-D3BJ/Def2-TZVPPD
|  3> #
|  4> ! rijk ri-dsd-blyp/2013 d3bj def2-tzvppd def2/jk def2-tzvppd/c grid4 nofinalgrid
|  5>
|  6> *xyz 0 1
|  7> B          0.00000        0.00000        0.00000
|  8> H          0.60006        1.03933        0.00000
|  9> H          0.60006       -1.03933        0.00000
| 10> H         -1.20012        0.00000        0.00000
| 11> *
| 12>
| 13> %maxcore 5000
| 14>
| 15> %pal
| 16> nprocs = 24
| 17> end
| 18>
| 19>
| 20>                          ****END OF INPUT****

CARTESIAN COORDINATES (ANGSTROEM)
---------------------------------
  B      0.000000    0.000000    0.000000
  H      0.600060    1.039330    0.000000
  H      0.600060   -1.039330    0.000000
  H     -1.200120    0.000000    0.000000

 Total Charge           Charge          ....    0
 Multiplicity           Mult            ....    1
 Number of Electrons    NEL             ....    8
 Basis Dimension        Dim             ....   88

ORBITAL ENERGIES
----------------

  NO   OCC          E(Eh)            E(eV)
   0   2.0000      -7.313646      -199.0144
   1   2.0000      -0.637830       -17.3562
   2   2.0000      -0.448456       -12.2031
   3   2.0000      -0.448456       -12.2031
   4   0.0000       0.005508         0.1499
   5   0.0000       0.035074         0.9544
   6   0.0000       0.115728         3.1491
   7   0.0000       0.115732         3.1492
   8   0.0000       0.129308         3.5186

MULLIKEN ATOMIC CHARGES
-----------------------
   0 B :    0.034448
   1 H :   -0.011443
   2 H :   -0.011443
   3 H :   -0.011562
Sum of atomic charges:   -0.0000000

LOEWDIN ATOMIC CHARGES
----------------------
   0 B :    0.252125
   1 H :   -0.084041
   2 H :   -0.084041
   3 H :   -0.084042

  Mayer bond orders larger than 0.100000
B(  0-B ,  1-H ) :   0.9978 B(  0-B ,  2-H ) :   0.9978 B(  0-B ,  3-H ) :   0.9978

MP2 TOTAL ENERGY:      -26.566389319 Eh
Dispersion correction           -0.000869039
FINAL SINGLE POINT ENERGY       -26.567258358157

DIPOLE MOMENT
-------------
                                X             Y             Z
Electronic contribution:     -0.00000      -0.00000       0.00000
Nuclear contribution   :      0.00000       0.00000       0.00000
                        -----------------------------------------
Total Dipole Moment    :     -0.00000      -0.00000       0.00000
                        -----------------------------------------
Magnitude (a.u.)       :      0.00000
Magnitude (Debye)      :      0.00000

Rotational constants in cm-1:     7.741042     7.740977     3.870505
Rotational constants in MHz : 232070.613118 232068.644801 116034.814478

                             ****ORCA TERMINATED NORMALLY****
TOTAL RUN TIME: 0 days 0 hours 0 minutes 3 seconds 624 msec
