                         Program Version 4.2.0 -  RELEASE  -
|  1> #
|  2> # 170_c ri-DSD-BLYP/2013-D3BJ/Def2-TZVPPD
|  3> #
|  4> ! rijk ri-dsd-blyp/2013 d3bj def2-tzvppd def2/jk def2-tzvppd/c grid4 nofinalgrid
|  5>
|  6> *xyz 0 1
|  7> C          0.00000        0.00000        0.00000
|  8> H          0.63307        0.63307       -0.63307
|  9> H         -0.63307       -0.63307       -0.63307
| 10> H          0.63307       -0.63307        0.63307
| 11> H         -0.63307        0.63307        0.63307
| 12> *
| 13>
| 14> %maxcore 5000
| 15>
| 16> %pal
| 17> nprocs = 24
| 18> end
| 19>
| 20>
| 21>                          ****END OF INPUT****

CARTESIAN COORDINATES (ANGSTROEM)
---------------------------------
  C      0.000000    0.000000    0.000000
  H      0.633070    0.633070   -0.633070
  H     -0.633070   -0.633070   -0.633070
  H      0.633070   -0.633070    0.633070
  H     -0.633070    0.633070    0.633070

 Total Charge           Charge          ....    0
 Multiplicity           Mult            ....    1
 Number of Electrons    NEL             ....   10
 Basis Dimension        Dim             ....  105

ORBITAL ENERGIES
----------------

  NO   OCC          E(Eh)            E(eV)
   0   2.0000     -10.833949      -294.8067
   1   2.0000      -0.853601       -23.2277
   2   2.0000      -0.491592       -13.3769
   3   2.0000      -0.491592       -13.3769
   4   2.0000      -0.491592       -13.3769
   5   0.0000       0.052466         1.4277
   6   0.0000       0.141175         3.8416
   7   0.0000       0.141175         3.8416
   8   0.0000       0.141176         3.8416
   9   0.0000       0.167273         4.5517

MULLIKEN ATOMIC CHARGES
-----------------------
   0 C :   -0.273880
   1 H :    0.068471
   2 H :    0.068473
   3 H :    0.068470
   4 H :    0.068466
Sum of atomic charges:    0.0000000

LOEWDIN ATOMIC CHARGES
----------------------
   0 C :    0.249835
   1 H :   -0.062459
   2 H :   -0.062459
   3 H :   -0.062459
   4 H :   -0.062459

  Mayer bond orders larger than 0.100000
B(  0-C ,  1-H ) :   0.9922 B(  0-C ,  2-H ) :   0.9922 B(  0-C ,  3-H ) :   0.9922
B(  0-C ,  4-H ) :   0.9922

MP2 TOTAL ENERGY:      -40.469750529 Eh
Dispersion correction           -0.001087788
FINAL SINGLE POINT ENERGY       -40.470838317599

DIPOLE MOMENT
-------------
                                X             Y             Z
Electronic contribution:      0.00000       0.00000      -0.00000
Nuclear contribution   :      0.00000       0.00000       0.00000
                        -----------------------------------------
Total Dipole Moment    :      0.00000       0.00000      -0.00000
                        -----------------------------------------
Magnitude (a.u.)       :      0.00000
Magnitude (Debye)      :      0.00000

Rotational constants in cm-1:     5.216064     5.216064     5.216064
Rotational constants in MHz : 156373.665933 156373.665933 156373.665933

                             ****ORCA TERMINATED NORMALLY****
TOTAL RUN TIME: 0 days 0 hours 0 minutes 3 seconds 398 msec
