                         Program Version 4.2.0 -  RELEASE  -
|  1> #
|  2> # 171_n ri-DSD-BLYP/2013-D3BJ/Def2-TZVPPD
|  3> #
|  4> ! rijk ri-dsd-blyp/2013 d3bj def2-tzvppd def2/jk def2-tzvppd/c grid4 nofinalgrid
|  5>
|  6> *xyz 0 1
|  7> N          0.00000        0.00000        0.55227
|  8> N          0.00000        0.00000       -0.55227
|  9> *
| 10>
| 11> %maxcore 5000
| 12>
| 13> %pal
| 14> nprocs = 24
| 15> end
| 16>
| 17>
| 18>                          ****END OF INPUT****

CARTESIAN COORDINATES (ANGSTROEM)
---------------------------------
  N      0.000000    0.000000    0.552270
  N      0.000000    0.000000   -0.552270

 Total Charge           Charge          ....    0
 Multiplicity           Mult            ....    1
 Number of Electrons    NEL             ....   14
 Basis Dimension        Dim             ....   74

ORBITAL ENERGIES
----------------

  NO   OCC          E(Eh)            E(eV)
   0   2.0000     -15.237945      -414.6456
   1   2.0000     -15.235144      -414.5694
   2   2.0000      -1.347882       -36.6777
   3   2.0000      -0.704917       -19.1818
   4   2.0000      -0.566208       -15.4073
   5   2.0000      -0.564469       -15.3600
   6   2.0000      -0.564469       -15.3600
   7   0.0000       0.078068         2.1243
   8   0.0000       0.078068         2.1243
   9   0.0000       0.098375         2.6769
  10   0.0000       0.130338         3.5467
  11   0.0000       0.277474         7.5504

MULLIKEN ATOMIC CHARGES
-----------------------
   0 N :   -0.000008
   1 N :    0.000008
Sum of atomic charges:    0.0000000

LOEWDIN ATOMIC CHARGES
----------------------
   0 N :   -0.000000
   1 N :    0.000000

  Mayer bond orders larger than 0.100000
B(  0-N ,  1-N ) :   2.6828

MP2 TOTAL ENERGY:     -109.463235344 Eh
Dispersion correction           -0.000507212
FINAL SINGLE POINT ENERGY      -109.463742555701

DIPOLE MOMENT
-------------
                                X             Y             Z
Electronic contribution:     -0.00000      -0.00000       0.00000
Nuclear contribution   :      0.00000       0.00000       0.00000
                        -----------------------------------------
Total Dipole Moment    :     -0.00000      -0.00000       0.00000
                        -----------------------------------------
Magnitude (a.u.)       :      0.00000
Magnitude (Debye)      :      0.00000

Rotational constants in cm-1:     0.000000     1.972963     1.972963
Rotational constants in MHz :     0.000000 59147.933340 59147.933340

                             ****ORCA TERMINATED NORMALLY****
TOTAL RUN TIME: 0 days 0 hours 0 minutes 3 seconds 495 msec
