                         Program Version 4.2.0 -  RELEASE  -
|  1> #
|  2> # 172_o ri-DSD-BLYP/2013-D3BJ/Def2-TZVPPD
|  3> #
|  4> ! rijk ri-dsd-blyp/2013 d3bj def2-tzvppd def2/jk def2-tzvppd/c grid4 nofinalgrid
|  5>
|  6> *xyz 0 3
|  7> O          0.00000        0.00000        0.61122
|  8> O          0.00000        0.00000       -0.61122
|  9> *
| 10>
| 11> %maxcore 5000
| 12>
| 13> %pal
| 14> nprocs = 24
| 15> end
| 16>
| 17>
| 18>                          ****END OF INPUT****

CARTESIAN COORDINATES (ANGSTROEM)
---------------------------------
  O      0.000000    0.000000    0.611220
  O      0.000000    0.000000   -0.611220

 Total Charge           Charge          ....    0
 Multiplicity           Mult            ....    3
 Number of Electrons    NEL             ....   16
 Basis Dimension        Dim             ....   80

ORBITAL ENERGIES
----------------
                 SPIN UP ORBITALS
  NO   OCC          E(Eh)            E(eV)
   0   1.0000     -20.237397      -550.6876
   1   1.0000     -20.236941      -550.6752
   2   1.0000      -1.561344       -42.4863
   3   1.0000      -1.083656       -29.4878
   4   1.0000      -0.743816       -20.2403
   5   1.0000      -0.743816       -20.2403
   6   1.0000      -0.691917       -18.8280
   7   1.0000      -0.479223       -13.0403
   8   1.0000      -0.479223       -13.0403
   9   0.0000       0.069359         1.8874
  10   0.0000       0.094143         2.5618
  11   0.0000       0.104709         2.8493
  12   0.0000       0.104709         2.8493
  13   0.0000       0.147805         4.0220

                 SPIN DOWN ORBITALS
  NO   OCC          E(Eh)            E(eV)
   0   1.0000     -20.192139      -549.4560
   1   1.0000     -20.191282      -549.4327
   2   1.0000      -1.459701       -39.7205
   3   1.0000      -0.919518       -25.0214
   4   1.0000      -0.639868       -17.4117
   5   1.0000      -0.538745       -14.6600
   6   1.0000      -0.538745       -14.6600
   7   0.0000       0.005671         0.1543
   8   0.0000       0.005671         0.1543
   9   0.0000       0.071906         1.9567
  10   0.0000       0.097377         2.6498
  11   0.0000       0.110730         3.0131

MULLIKEN ATOMIC CHARGES AND SPIN POPULATIONS
--------------------------------------------
   0 O :   -0.000000    0.999999
   1 O :    0.000000    1.000001
Sum of atomic charges         :   -0.0000000

LOEWDIN ATOMIC CHARGES AND SPIN POPULATIONS
-------------------------------------------
   0 O :   -0.000000    1.000000
   1 O :    0.000000    1.000000

  Mayer bond orders larger than 0.100000
B(  0-O ,  1-O ) :   1.7030

MP2 TOTAL ENERGY:     -150.245341046 Eh
Dispersion correction           -0.000292729
FINAL SINGLE POINT ENERGY      -150.245633775440

DIPOLE MOMENT
-------------
                                X             Y             Z
Electronic contribution:      0.00000       0.00000       0.00000
Nuclear contribution   :      0.00000       0.00000       0.00000
                        -----------------------------------------
Total Dipole Moment    :      0.00000       0.00000       0.00000
                        -----------------------------------------
Magnitude (a.u.)       :      0.00000
Magnitude (Debye)      :      0.00000

Rotational constants in cm-1:     0.000000     1.410194     1.410194
Rotational constants in MHz :     0.000000 42276.561443 42276.561443

                             ****ORCA TERMINATED NORMALLY****
TOTAL RUN TIME: 0 days 0 hours 0 minutes 3 seconds 228 msec
