                         Program Version 4.2.0 -  RELEASE  -
|  1> #
|  2> # 173_f ri-DSD-BLYP/2013-D3BJ/Def2-TZVPPD
|  3> #
|  4> ! rijk ri-dsd-blyp/2013 d3bj def2-tzvppd def2/jk def2-tzvppd/c grid4 nofinalgrid
|  5>
|  6> *xyz 0 1
|  7> F          0.00000        0.00000        0.71109
|  8> F          0.00000        0.00000       -0.71109
|  9> *
| 10>
| 11> %maxcore 5000
| 12>
| 13> %pal
| 14> nprocs = 24
| 15> end
| 16>
| 17>
| 18>                          ****END OF INPUT****

CARTESIAN COORDINATES (ANGSTROEM)
---------------------------------
  F      0.000000    0.000000    0.711090
  F      0.000000    0.000000   -0.711090

 Total Charge           Charge          ....    0
 Multiplicity           Mult            ....    1
 Number of Electrons    NEL             ....   18
 Basis Dimension        Dim             ....   80

ORBITAL ENERGIES
----------------

  NO   OCC          E(Eh)            E(eV)
   0   2.0000     -25.849792      -703.4086
   1   2.0000     -25.849633      -703.4043
   2   2.0000      -1.616311       -43.9821
   3   2.0000      -1.366629       -37.1879
   4   2.0000      -0.718681       -19.5563
   5   2.0000      -0.718681       -19.5563
   6   2.0000      -0.702735       -19.1224
   7   2.0000      -0.584157       -15.8957
   8   2.0000      -0.584157       -15.8957
   9   0.0000      -0.023254        -0.6328
  10   0.0000       0.102961         2.8017
  11   0.0000       0.120710         3.2847
  12   0.0000       0.128398         3.4939
  13   0.0000       0.128398         3.4939

MULLIKEN ATOMIC CHARGES
-----------------------
   0 F :   -0.000000
   1 F :    0.000000
Sum of atomic charges:   -0.0000000

LOEWDIN ATOMIC CHARGES
----------------------
   0 F :   -0.000000
   1 F :    0.000000

  Mayer bond orders larger than 0.100000
B(  0-F ,  1-F ) :   0.8589

MP2 TOTAL ENERGY:     -199.433368683 Eh
Dispersion correction           -0.000162812
FINAL SINGLE POINT ENERGY      -199.433531495061

DIPOLE MOMENT
-------------
                                X             Y             Z
Electronic contribution:     -0.00000      -0.00000      -0.00000
Nuclear contribution   :      0.00000       0.00000       0.00000
                        -----------------------------------------
Total Dipole Moment    :     -0.00000      -0.00000      -0.00000
                        -----------------------------------------
Magnitude (a.u.)       :      0.00000
Magnitude (Debye)      :      0.00000

Rotational constants in cm-1:     0.000000     0.877425     0.877425
Rotational constants in MHz :     0.000000 26304.532186 26304.532186

                             ****ORCA TERMINATED NORMALLY****
TOTAL RUN TIME: 0 days 0 hours 0 minutes 3 seconds 516 msec
