                         Program Version 4.2.0 -  RELEASE  -
|  1> #
|  2> # 174_na ri-DSD-BLYP/2013-D3BJ/Def2-TZVPPD
|  3> #
|  4> ! rijk ri-dsd-blyp/2013 d3bj def2-tzvppd def2/jk def2-tzvppd/c grid4 nofinalgrid
|  5>
|  6> *xyz 0 1
|  7> Na         0.00000        0.00000        0.94863
|  8> H          0.00000        0.00000       -0.94863
|  9> *
| 10>
| 11> %maxcore 5000
| 12>
| 13> %pal
| 14> nprocs = 24
| 15> end
| 16>
| 17>
| 18>                          ****END OF INPUT****

CARTESIAN COORDINATES (ANGSTROEM)
---------------------------------
  Na     0.000000    0.000000    0.948630
  H      0.000000    0.000000   -0.948630

 Total Charge           Charge          ....    0
 Multiplicity           Mult            ....    1
 Number of Electrons    NEL             ....   12
 Basis Dimension        Dim             ....   52

ORBITAL ENERGIES
----------------

  NO   OCC          E(Eh)            E(eV)
   0   2.0000     -39.758380     -1081.8805
   1   2.0000      -2.586959       -70.3947
   2   2.0000      -1.385060       -37.6894
   3   2.0000      -1.385060       -37.6894
   4   2.0000      -1.383047       -37.6346
   5   2.0000      -0.243221        -6.6184
   6   0.0000      -0.020569        -0.5597
   7   0.0000       0.013080         0.3559
   8   0.0000       0.013080         0.3559
   9   0.0000       0.031087         0.8459
  10   0.0000       0.058365         1.5882

MULLIKEN ATOMIC CHARGES
-----------------------
   0 Na:    0.500043
   1 H :   -0.500043
Sum of atomic charges:    0.0000000

LOEWDIN ATOMIC CHARGES
----------------------
   0 Na:    0.312521
   1 H :   -0.312521

  Mayer bond orders larger than 0.100000
B(  0-Na,  1-H ) :   0.7518

MP2 TOTAL ENERGY:     -162.722905139 Eh
Dispersion correction           -0.000459829
FINAL SINGLE POINT ENERGY      -162.723364967722

DIPOLE MOMENT
-------------
                                X             Y             Z
Electronic contribution:     -0.00000      -0.00000       4.40011
Nuclear contribution   :      0.00000       0.00000      -1.77816
                        -----------------------------------------
Total Dipole Moment    :     -0.00000      -0.00000       2.62196
                        -----------------------------------------
Magnitude (a.u.)       :      2.62196
Magnitude (Debye)      :      6.66448

Rotational constants in cm-1:     0.000000     4.849743     4.849743
Rotational constants in MHz :     0.000000 145391.644375 145391.644375

                             ****ORCA TERMINATED NORMALLY****
TOTAL RUN TIME: 0 days 0 hours 0 minutes 3 seconds 322 msec
