                         Program Version 4.2.0 -  RELEASE  -
|  1> #
|  2> # 176_al ri-DSD-BLYP/2013-D3BJ/Def2-TZVPPD
|  3> #
|  4> ! rijk ri-dsd-blyp/2013 d3bj def2-tzvppd def2/jk def2-tzvppd/c grid4 nofinalgrid
|  5>
|  6> *xyz 0 1
|  7> Al         0.00000        0.00000        0.00000
|  8> H          0.80046       -1.38644        0.00000
|  9> H          0.80046        1.38644        0.00000
| 10> H         -1.60093        0.00000        0.00000
| 11> *
| 12>
| 13> %maxcore 5000
| 14>
| 15> %pal
| 16> nprocs = 24
| 17> end
| 18>
| 19>
| 20>                          ****END OF INPUT****

CARTESIAN COORDINATES (ANGSTROEM)
---------------------------------
  Al     0.000000    0.000000    0.000000
  H      0.800460   -1.386440    0.000000
  H      0.800460    1.386440    0.000000
  H     -1.600930    0.000000    0.000000

 Total Charge           Charge          ....    0
 Multiplicity           Mult            ....    1
 Number of Electrons    NEL             ....   16
 Basis Dimension        Dim             ....   99

ORBITAL ENERGIES
----------------

  NO   OCC          E(Eh)            E(eV)
   0   2.0000     -57.602805     -1567.4520
   1   2.0000      -4.622755      -125.7916
   2   2.0000      -3.026703       -82.3608
   3   2.0000      -3.021586       -82.2215
   4   2.0000      -3.021586       -82.2215
   5   2.0000      -0.517302       -14.0765
   6   2.0000      -0.387738       -10.5509
   7   2.0000      -0.387738       -10.5509
   8   0.0000      -0.006442        -0.1753
   9   0.0000       0.036975         1.0061
  10   0.0000       0.075734         2.0608
  11   0.0000       0.080781         2.1982
  12   0.0000       0.080784         2.1982

MULLIKEN ATOMIC CHARGES
-----------------------
   0 Al:    0.621091
   1 H :   -0.207037
   2 H :   -0.207037
   3 H :   -0.207016
Sum of atomic charges:    0.0000000

LOEWDIN ATOMIC CHARGES
----------------------
   0 Al:    0.640538
   1 H :   -0.213514
   2 H :   -0.213514
   3 H :   -0.213510

  Mayer bond orders larger than 0.100000
B(  0-Al,  1-H ) :   0.9283 B(  0-Al,  2-H ) :   0.9283 B(  0-Al,  3-H ) :   0.9283

MP2 TOTAL ENERGY:     -243.993022439 Eh
Dispersion correction           -0.001554823
FINAL SINGLE POINT ENERGY      -243.994577262623

DIPOLE MOMENT
-------------
                                X             Y             Z
Electronic contribution:      0.00001       0.00000       0.00000
Nuclear contribution   :     -0.00001       0.00000       0.00000
                        -----------------------------------------
Total Dipole Moment    :      0.00000       0.00000       0.00000
                        -----------------------------------------
Magnitude (a.u.)       :      0.00000
Magnitude (Debye)      :      0.00001

Rotational constants in cm-1:     4.350150     4.350130     2.175070
Rotational constants in MHz : 130414.210579 130413.615544 65206.956531

                             ****ORCA TERMINATED NORMALLY****
TOTAL RUN TIME: 0 days 0 hours 0 minutes 3 seconds 606 msec
