                         Program Version 4.2.0 -  RELEASE  -
|  1> #
|  2> # 177_si ri-DSD-BLYP/2013-D3BJ/Def2-TZVPPD
|  3> #
|  4> ! rijk ri-dsd-blyp/2013 d3bj def2-tzvppd def2/jk def2-tzvppd/c grid4 nofinalgrid
|  5>
|  6> *xyz 0 1
|  7> Si         0.00000        0.00000        0.00000
|  8> H         -0.86552        0.86552        0.86552
|  9> H          0.86552       -0.86552        0.86552
| 10> H         -0.86552       -0.86552       -0.86552
| 11> H          0.86552        0.86552       -0.86552
| 12> *
| 13>
| 14> %maxcore 5000
| 15>
| 16> %pal
| 17> nprocs = 24
| 18> end
| 19>
| 20>
| 21>                          ****END OF INPUT****

CARTESIAN COORDINATES (ANGSTROEM)
---------------------------------
  Si     0.000000    0.000000    0.000000
  H     -0.865520    0.865520    0.865520
  H      0.865520   -0.865520    0.865520
  H     -0.865520   -0.865520   -0.865520
  H      0.865520    0.865520   -0.865520

 Total Charge           Charge          ....    0
 Multiplicity           Mult            ....    1
 Number of Electrons    NEL             ....   18
 Basis Dimension        Dim             ....  116

ORBITAL ENERGIES
----------------

  NO   OCC          E(Eh)            E(eV)
   0   2.0000     -67.824728     -1845.6047
   1   2.0000      -5.822027      -158.4254
   2   2.0000      -4.019768      -109.3835
   3   2.0000      -4.019768      -109.3835
   4   2.0000      -4.019768      -109.3835
   5   2.0000      -0.664240       -18.0749
   6   2.0000      -0.438579       -11.9343
   7   2.0000      -0.438579       -11.9343
   8   2.0000      -0.438578       -11.9343
   9   0.0000       0.048832         1.3288
  10   0.0000       0.086452         2.3525
  11   0.0000       0.086452         2.3525
  12   0.0000       0.086452         2.3525
  13   0.0000       0.113843         3.0978

MULLIKEN ATOMIC CHARGES
-----------------------
   0 Si:    0.519960
   1 H :   -0.129989
   2 H :   -0.129992
   3 H :   -0.129990
   4 H :   -0.129989
Sum of atomic charges:   -0.0000000

LOEWDIN ATOMIC CHARGES
----------------------
   0 Si:    0.669345
   1 H :   -0.167336
   2 H :   -0.167336
   3 H :   -0.167336
   4 H :   -0.167336

  Mayer bond orders larger than 0.100000
B(  0-Si,  1-H ) :   0.9606 B(  0-Si,  2-H ) :   0.9606 B(  0-Si,  3-H ) :   0.9606
B(  0-Si,  4-H ) :   0.9606

MP2 TOTAL ENERGY:     -291.670167621 Eh
Dispersion correction           -0.002238009
FINAL SINGLE POINT ENERGY      -291.672405629893

DIPOLE MOMENT
-------------
                                X             Y             Z
Electronic contribution:     -0.00000       0.00000      -0.00000
Nuclear contribution   :      0.00000       0.00000       0.00000
                        -----------------------------------------
Total Dipole Moment    :     -0.00000       0.00000      -0.00000
                        -----------------------------------------
Magnitude (a.u.)       :      0.00000
Magnitude (Debye)      :      0.00000

Rotational constants in cm-1:     2.790565     2.790565     2.790565
Rotational constants in MHz : 83659.038574 83659.038574 83659.038574

                             ****ORCA TERMINATED NORMALLY****
TOTAL RUN TIME: 0 days 0 hours 0 minutes 2 seconds 956 msec
