                         Program Version 4.2.0 -  RELEASE  -
|  1> #
|  2> # 178_p ri-DSD-BLYP/2013-D3BJ/Def2-TZVPPD
|  3> #
|  4> ! rijk ri-dsd-blyp/2013 d3bj def2-tzvppd def2/jk def2-tzvppd/c grid4 nofinalgrid
|  5>
|  6> *xyz 0 1
|  7> P          0.00000        0.00000        0.95949
|  8> P          0.00000        0.00000       -0.95949
|  9> *
| 10>
| 11> %maxcore 5000
| 12>
| 13> %pal
| 14> nprocs = 24
| 15> end
| 16>
| 17>
| 18>                          ****END OF INPUT****

CARTESIAN COORDINATES (ANGSTROEM)
---------------------------------
  P      0.000000    0.000000    0.959490
  P      0.000000    0.000000   -0.959490

 Total Charge           Charge          ....    0
 Multiplicity           Mult            ....    1
 Number of Electrons    NEL             ....   30
 Basis Dimension        Dim             ....   96

ORBITAL ENERGIES
----------------

  NO   OCC          E(Eh)            E(eV)
   0   2.0000     -78.942196     -2148.1264
   1   2.0000     -78.942182     -2148.1260
   2   2.0000      -7.179541      -195.3652
   3   2.0000      -7.178983      -195.3501
   4   2.0000      -5.168695      -140.6473
   5   2.0000      -5.168695      -140.6473
   6   2.0000      -5.168498      -140.6420
   7   2.0000      -5.168498      -140.6420
   8   2.0000      -5.167947      -140.6270
   9   2.0000      -5.165936      -140.5723
  10   2.0000      -0.819848       -22.3092
  11   2.0000      -0.562897       -15.3172
  12   2.0000      -0.370379       -10.0785
  13   2.0000      -0.339830        -9.2472
  14   2.0000      -0.339830        -9.2472
  15   0.0000      -0.029203        -0.7946
  16   0.0000      -0.029203        -0.7946
  17   0.0000       0.068052         1.8518
  18   0.0000       0.074853         2.0368
  19   0.0000       0.142628         3.8811

MULLIKEN ATOMIC CHARGES
-----------------------
   0 P :   -0.000001
   1 P :    0.000001
Sum of atomic charges:   -0.0000000

LOEWDIN ATOMIC CHARGES
----------------------
   0 P :   -0.000000
   1 P :    0.000000

  Mayer bond orders larger than 0.100000
B(  0-P ,  1-P ) :   2.8441

MP2 TOTAL ENERGY:     -682.286756584 Eh
Dispersion correction           -0.003805752
FINAL SINGLE POINT ENERGY      -682.290562336322

DIPOLE MOMENT
-------------
                                X             Y             Z
Electronic contribution:     -0.00000      -0.00000      -0.00000
Nuclear contribution   :      0.00000       0.00000       0.00000
                        -----------------------------------------
Total Dipole Moment    :     -0.00000      -0.00000      -0.00000
                        -----------------------------------------
Magnitude (a.u.)       :      0.00000
Magnitude (Debye)      :      0.00000

Rotational constants in cm-1:     0.000000     0.295589     0.295589
Rotational constants in MHz :     0.000000  8861.544214  8861.544214

                             ****ORCA TERMINATED NORMALLY****
TOTAL RUN TIME: 0 days 0 hours 0 minutes 3 seconds 639 msec
