                         Program Version 4.2.0 -  RELEASE  -
|  1> #
|  2> # 179_s ri-DSD-BLYP/2013-D3BJ/Def2-TZVPPD
|  3> #
|  4> ! rijk ri-dsd-blyp/2013 d3bj def2-tzvppd def2/jk def2-tzvppd/c grid4 nofinalgrid
|  5>
|  6> *xyz 0 3
|  7> S          0.00000        0.00000        0.96937
|  8> S          0.00000        0.00000       -0.96937
|  9> *
| 10>
| 11> %maxcore 5000
| 12>
| 13> %pal
| 14> nprocs = 24
| 15> end
| 16>
| 17>
| 18>                          ****END OF INPUT****

CARTESIAN COORDINATES (ANGSTROEM)
---------------------------------
  S      0.000000    0.000000    0.969370
  S      0.000000    0.000000   -0.969370

 Total Charge           Charge          ....    0
 Multiplicity           Mult            ....    3
 Number of Electrons    NEL             ....   32
 Basis Dimension        Dim             ....  102

ORBITAL ENERGIES
----------------
                 SPIN UP ORBITALS
  NO   OCC          E(Eh)            E(eV)
   0   1.0000     -90.911852     -2473.8373
   1   1.0000     -90.911846     -2473.8371
   2   1.0000      -8.652633      -235.4501
   3   1.0000      -8.652395      -235.4436
   4   1.0000      -6.439618      -175.2309
   5   1.0000      -6.439618      -175.2309
   6   1.0000      -6.439579      -175.2298
   7   1.0000      -6.439579      -175.2298
   8   1.0000      -6.432431      -175.0353
   9   1.0000      -6.431712      -175.0158
  10   1.0000      -1.006636       -27.3920
  11   1.0000      -0.792920       -21.5764
  12   1.0000      -0.486066       -13.2265
  13   1.0000      -0.477385       -12.9903
  14   1.0000      -0.477385       -12.9903
  15   1.0000      -0.340693        -9.2707
  16   1.0000      -0.340693        -9.2707
  17   0.0000       0.025749         0.7007
  18   0.0000       0.064029         1.7423
  19   0.0000       0.064029         1.7423
  20   0.0000       0.065076         1.7708
  21   0.0000       0.083946         2.2843

                 SPIN DOWN ORBITALS
  NO   OCC          E(Eh)            E(eV)
   0   1.0000     -90.901492     -2473.5553
   1   1.0000     -90.901488     -2473.5552
   2   1.0000      -8.643006      -235.1882
   3   1.0000      -8.642688      -235.1795
   4   1.0000      -6.427750      -174.9080
   5   1.0000      -6.427001      -174.8876
   6   1.0000      -6.416736      -174.6083
   7   1.0000      -6.416736      -174.6083
   8   1.0000      -6.416671      -174.6065
   9   1.0000      -6.416671      -174.6065
  10   1.0000      -0.954746       -25.9800
  11   1.0000      -0.684768       -18.6335
  12   1.0000      -0.454468       -12.3667
  13   1.0000      -0.379887       -10.3373
  14   1.0000      -0.379887       -10.3373
  15   0.0000      -0.057342        -1.5604
  16   0.0000      -0.057342        -1.5604
  17   0.0000       0.031899         0.8680
  18   0.0000       0.066044         1.7971
  19   0.0000       0.066044         1.7971

MULLIKEN ATOMIC CHARGES AND SPIN POPULATIONS
--------------------------------------------
   0 S :   -0.000000    1.000001
   1 S :    0.000000    0.999999
Sum of atomic charges         :   -0.0000000

LOEWDIN ATOMIC CHARGES AND SPIN POPULATIONS
-------------------------------------------
   0 S :   -0.000000    1.000000
   1 S :    0.000000    1.000000

  Mayer bond orders larger than 0.100000
B(  0-S ,  1-S ) :   1.9351

MP2 TOTAL ENERGY:     -795.951165039 Eh
Dispersion correction           -0.002742868
FINAL SINGLE POINT ENERGY      -795.953907906666

DIPOLE MOMENT
-------------
                                X             Y             Z
Electronic contribution:      0.00000       0.00000      -0.00000
Nuclear contribution   :      0.00000       0.00000       0.00000
                        -----------------------------------------
Total Dipole Moment    :      0.00000       0.00000      -0.00000
                        -----------------------------------------
Magnitude (a.u.)       :      0.00000
Magnitude (Debye)      :      0.00000

Rotational constants in cm-1:     0.000000     0.279785     0.279785
Rotational constants in MHz :     0.000000  8387.739618  8387.739618

                             ****ORCA TERMINATED NORMALLY****
TOTAL RUN TIME: 0 days 0 hours 0 minutes 3 seconds 465 msec
