                         Program Version 4.2.0 -  RELEASE  -
|  1> #
|  2> # 180_cl ri-DSD-BLYP/2013-D3BJ/Def2-TZVPPD
|  3> #
|  4> ! rijk ri-dsd-blyp/2013 d3bj def2-tzvppd def2/jk def2-tzvppd/c grid4 nofinalgrid
|  5>
|  6> *xyz 0 1
|  7> Cl         0.00000        0.00000        1.02399
|  8> Cl         0.00000        0.00000       -1.02399
|  9> *
| 10>
| 11> %maxcore 5000
| 12>
| 13> %pal
| 14> nprocs = 24
| 15> end
| 16>
| 17>
| 18>                          ****END OF INPUT****

CARTESIAN COORDINATES (ANGSTROEM)
---------------------------------
  Cl     0.000000    0.000000    1.023990
  Cl     0.000000    0.000000   -1.023990

 Total Charge           Charge          ....    0
 Multiplicity           Mult            ....    1
 Number of Electrons    NEL             ....   34
 Basis Dimension        Dim             ....  102

ORBITAL ENERGIES
----------------

  NO   OCC          E(Eh)            E(eV)
   0   2.0000    -103.713607     -2822.1907
   1   2.0000    -103.713603     -2822.1906
   2   2.0000     -10.225432      -278.2481
   3   2.0000     -10.225327      -278.2453
   4   2.0000      -7.800517      -212.2629
   5   2.0000      -7.800353      -212.2584
   6   2.0000      -7.793892      -212.0826
   7   2.0000      -7.793892      -212.0826
   8   2.0000      -7.793891      -212.0826
   9   2.0000      -7.793891      -212.0826
  10   2.0000      -1.107003       -30.1231
  11   2.0000      -0.938208       -25.5299
  12   2.0000      -0.549055       -14.9405
  13   2.0000      -0.510136       -13.8815
  14   2.0000      -0.510136       -13.8815
  15   2.0000      -0.404642       -11.0109
  16   2.0000      -0.404642       -11.0109
  17   0.0000      -0.046645        -1.2693
  18   0.0000       0.061504         1.6736
  19   0.0000       0.077638         2.1126
  20   0.0000       0.077638         2.1126
  21   0.0000       0.079577         2.1654

MULLIKEN ATOMIC CHARGES
-----------------------
   0 Cl:    0.000001
   1 Cl:   -0.000001
Sum of atomic charges:   -0.0000000

LOEWDIN ATOMIC CHARGES
----------------------
   0 Cl:    0.000000
   1 Cl:   -0.000000

  Mayer bond orders larger than 0.100000
B(  0-Cl,  1-Cl) :   0.9822

MP2 TOTAL ENERGY:     -919.934738827 Eh
Dispersion correction           -0.001830887
FINAL SINGLE POINT ENERGY      -919.936569714063

DIPOLE MOMENT
-------------
                                X             Y             Z
Electronic contribution:      0.00000       0.00000      -0.00000
Nuclear contribution   :      0.00000       0.00000       0.00000
                        -----------------------------------------
Total Dipole Moment    :      0.00000       0.00000      -0.00000
                        -----------------------------------------
Magnitude (a.u.)       :      0.00000
Magnitude (Debye)      :      0.00000

Rotational constants in cm-1:     0.000000     0.226737     0.226737
Rotational constants in MHz :     0.000000  6797.405627  6797.405627

                             ****ORCA TERMINATED NORMALLY****
TOTAL RUN TIME: 0 days 0 hours 0 minutes 3 seconds 652 msec
