                         Program Version 4.2.0 -  RELEASE  -
|  1> #
|  2> # 048 wB97M-V/Def2-TZVPPD
|  3> #
|  4> ! wb97m-v def2-tzvppd def2/jk grid4 nofinalgrid
|  5>
|  6> *xyz 0 1
|  7> O          0.75742       -0.00510        0.75514
|  8> H         -1.01794        1.02757        1.02184
|  9> H         -0.96093       -0.60735        1.74144
| 10> C         -0.64191        0.00049        0.87802
| 11> H          0.38038        0.00572       -2.17342
| 12> H          0.12624       -0.00672       -2.88156
| 13> Al         2.47079       -0.00043        0.68709
| 14> H         -1.11404       -0.41418       -0.02857
| 15> *
| 16>
| 17> %maxcore 5000
| 18>
| 19> %pal
| 20> nprocs = 24
| 21> end
| 22>
| 23>
| 24>                          ****END OF INPUT****

CARTESIAN COORDINATES (ANGSTROEM)
---------------------------------
  O      0.757420   -0.005100    0.755140
  H     -1.017940    1.027570    1.021840
  H     -0.960930   -0.607350    1.741440
  C     -0.641910    0.000490    0.878020
  H      0.380380    0.005720   -2.173420
  H      0.126240   -0.006720   -2.881560
  Al     2.470790   -0.000430    0.687090
  H     -1.114040   -0.414180   -0.028570

 Total Charge           Charge          ....    0
 Multiplicity           Mult            ....    1
 Number of Electrons    NEL             ....   32
 Basis Dimension        Dim             ....  210

ORBITAL ENERGIES
----------------

  NO   OCC          E(Eh)            E(eV)
   0   2.0000     -56.300277     -1532.0084
   1   2.0000     -19.315883      -525.6119
   2   2.0000     -10.388857      -282.6952
   3   2.0000      -4.279944      -116.4632
   4   2.0000      -2.793959       -76.0275
   5   2.0000      -2.793949       -76.0272
   6   2.0000      -2.790537       -75.9344
   7   2.0000      -1.109075       -30.1795
   8   2.0000      -0.791543       -21.5390
   9   2.0000      -0.582440       -15.8490
  10   2.0000      -0.551475       -15.0064
  11   2.0000      -0.546358       -14.8672
  12   2.0000      -0.526720       -14.3328
  13   2.0000      -0.389387       -10.5958
  14   2.0000      -0.389061       -10.5869
  15   2.0000      -0.320783        -8.7290
  16   0.0000       0.023017         0.6263
  17   0.0000       0.023059         0.6275
  18   0.0000       0.039194         1.0665
  19   0.0000       0.048996         1.3332
  20   0.0000       0.064678         1.7600

MULLIKEN ATOMIC CHARGES
-----------------------
   0 O :   -0.189064
   1 H :    0.201665
   2 H :    0.177251
   3 C :   -0.367778
   4 H :   -0.355178
   5 H :    0.340786
   6 Al:    0.026286
   7 H :    0.166032
Sum of atomic charges:   -0.0000000

LOEWDIN ATOMIC CHARGES
----------------------
   0 O :   -0.529296
   1 H :   -0.001195
   2 H :   -0.002698
   3 C :   -0.014151
   4 H :    0.005991
   5 H :    0.040394
   6 Al:    0.514937
   7 H :   -0.013982

  Mayer bond orders larger than 0.100000
B(  0-O ,  3-C ) :   0.6785 B(  0-O ,  6-Al) :   0.8152 B(  1-H ,  3-C ) :   0.9752
B(  2-H ,  3-C ) :   0.9898 B(  3-C ,  7-H ) :   0.9670 B(  4-H ,  5-H ) :   0.8870

FINAL SINGLE POINT ENERGY      -358.750498085405

DIPOLE MOMENT
-------------
                                X             Y             Z
Electronic contribution:      8.76027      -0.00555       5.31462
Nuclear contribution   :     -8.98536       0.01025      -5.24566
                        -----------------------------------------
Total Dipole Moment    :     -0.22509       0.00470       0.06896
                        -----------------------------------------
Magnitude (a.u.)       :      0.23546
Magnitude (Debye)      :      0.59850

Rotational constants in cm-1:     0.678137     0.159402     0.132325
Rotational constants in MHz : 20330.024381  4778.738837  3967.007595

                             ****ORCA TERMINATED NORMALLY****
TOTAL RUN TIME: 0 days 0 hours 0 minutes 8 seconds 450 msec
