                         Program Version 4.2.0 -  RELEASE  -
|  1> #
|  2> # 050 wB97M-V/Def2-TZVPPD
|  3> #
|  4> ! wb97m-v def2-tzvppd def2/jk grid4 nofinalgrid
|  5>
|  6> *xyz 0 1
|  7> H          0.20940       -0.52586       -2.49943
|  8> Cl        -0.00687       -1.57667        0.66924
|  9> H         -0.20240       -1.10325       -2.75186
| 10> H         -1.52841        1.31136        0.17964
| 11> H          1.18008        1.27520       -0.42375
| 12> H          0.01798       -1.62546        1.96923
| 13> Al        -0.00655        1.11839        0.64244
| 14> H          0.33679        1.12629        2.21448
| 15> *
| 16>
| 17> %maxcore 5000
| 18>
| 19> %pal
| 20> nprocs = 24
| 21> end
| 22>
| 23>
| 24>                          ****END OF INPUT****

CARTESIAN COORDINATES (ANGSTROEM)
---------------------------------
  H      0.209400   -0.525860   -2.499430
  Cl    -0.006870   -1.576670    0.669240
  H     -0.202400   -1.103250   -2.751860
  H     -1.528410    1.311360    0.179640
  H      1.180080    1.275200   -0.423750
  H      0.017980   -1.625460    1.969230
  Al    -0.006550    1.118390    0.642440
  H      0.336790    1.126290    2.214480

 Total Charge           Charge          ....    0
 Multiplicity           Mult            ....    1
 Number of Electrons    NEL             ....   36
 Basis Dimension        Dim             ....  201

ORBITAL ENERGIES
----------------

  NO   OCC          E(Eh)            E(eV)
   0   2.0000    -101.936568     -2773.8350
   1   2.0000     -56.295242     -1531.8714
   2   2.0000      -9.709455      -264.2077
   3   2.0000      -7.413260      -201.7251
   4   2.0000      -7.406735      -201.5475
   5   2.0000      -7.405532      -201.5148
   6   2.0000      -4.279464      -116.4501
   7   2.0000      -2.797584       -76.1261
   8   2.0000      -2.790189       -75.9249
   9   2.0000      -2.789996       -75.9197
  10   2.0000      -1.017806       -27.6959
  11   2.0000      -0.620217       -16.8770
  12   2.0000      -0.545672       -14.8485
  13   2.0000      -0.534824       -14.5533
  14   2.0000      -0.485025       -13.1982
  15   2.0000      -0.465902       -12.6778
  16   2.0000      -0.385169       -10.4810
  17   2.0000      -0.381696       -10.3865
  18   0.0000       0.008168         0.2223
  19   0.0000       0.026663         0.7255
  20   0.0000       0.045466         1.2372
  21   0.0000       0.056663         1.5419
  22   0.0000       0.057782         1.5723

MULLIKEN ATOMIC CHARGES
-----------------------
   0 H :   -0.143557
   1 Cl:   -0.170883
   2 H :    0.140004
   3 H :   -0.165250
   4 H :   -0.174286
   5 H :    0.266838
   6 Al:    0.443437
   7 H :   -0.196305
Sum of atomic charges:    0.0000000

LOEWDIN ATOMIC CHARGES
----------------------
   0 H :    0.005811
   1 Cl:    0.524110
   2 H :    0.031388
   3 H :   -0.184549
   4 H :   -0.186430
   5 H :   -0.334488
   6 Al:    0.326716
   7 H :   -0.182557

  Mayer bond orders larger than 0.100000
B(  0-H ,  2-H ) :   0.9755 B(  1-Cl,  5-H ) :   0.9629 B(  1-Cl,  6-Al) :   0.2272
B(  3-H ,  6-Al) :   0.9477 B(  4-H ,  6-Al) :   0.9396 B(  6-Al,  7-H ) :   0.9105

FINAL SINGLE POINT ENERGY      -706.135466190582

DIPOLE MOMENT
-------------
                                X             Y             Z
Electronic contribution:     -0.04087      -3.63353       5.09160
Nuclear contribution   :      0.04784       2.78212      -4.67262
                        -----------------------------------------
Total Dipole Moment    :      0.00697      -0.85141       0.41898
                        -----------------------------------------
Magnitude (a.u.)       :      0.94894
Magnitude (Debye)      :      2.41202

Rotational constants in cm-1:     0.545363     0.134491     0.113645
Rotational constants in MHz : 16349.582447  4031.950699  3406.980673

                             ****ORCA TERMINATED NORMALLY****
TOTAL RUN TIME: 0 days 0 hours 0 minutes 6 seconds 318 msec
