                         Program Version 4.2.0 -  RELEASE  -
|  1> #
|  2> # 070 wB97M-V/Def2-TZVPPD
|  3> #
|  4> ! wb97m-v def2-tzvppd def2/jk grid4 nofinalgrid
|  5>
|  6> *xyz 0 1
|  7> H          0.08530       -0.02655        1.60712
|  8> H          0.90656       -0.78582       -1.39861
|  9> Be        -0.05035        0.92778       -0.02639
| 10> H          0.07901        0.71807        1.80526
| 11> F         -0.04624       -1.68577        0.17900
| 12> C         -0.00461       -0.62157       -0.79461
| 13> H         -0.11623        2.26790        0.10895
| 14> H         -0.85344       -0.79405       -1.48072
| 15> *
| 16>
| 17> %maxcore 5000
| 18>
| 19> %pal
| 20> nprocs = 24
| 21> end
| 22>
| 23>
| 24>                          ****END OF INPUT****

CARTESIAN COORDINATES (ANGSTROEM)
---------------------------------
  H      0.085300   -0.026550    1.607120
  H      0.906560   -0.785820   -1.398610
  Be    -0.050350    0.927780   -0.026390
  H      0.079010    0.718070    1.805260
  F     -0.046240   -1.685770    0.179000
  C     -0.004610   -0.621570   -0.794610
  H     -0.116230    2.267900    0.108950
  H     -0.853440   -0.794050   -1.480720

 Total Charge           Charge          ....    0
 Multiplicity           Mult            ....    1
 Number of Electrons    NEL             ....   24
 Basis Dimension        Dim             ....  184

ORBITAL ENERGIES
----------------

  NO   OCC          E(Eh)            E(eV)
   0   2.0000     -24.877530      -676.9520
   1   2.0000     -10.386253      -282.6243
   2   2.0000      -4.167801      -113.4116
   3   2.0000      -1.300760       -35.3955
   4   2.0000      -0.789513       -21.4837
   5   2.0000      -0.630910       -17.1679
   6   2.0000      -0.573644       -15.6096
   7   2.0000      -0.571631       -15.5549
   8   2.0000      -0.532219       -14.4824
   9   2.0000      -0.445964       -12.1353
  10   2.0000      -0.421759       -11.4766
  11   2.0000      -0.386363       -10.5135
  12   0.0000       0.013417         0.3651
  13   0.0000       0.028724         0.7816
  14   0.0000       0.034837         0.9480
  15   0.0000       0.041576         1.1314
  16   0.0000       0.073418         1.9978

MULLIKEN ATOMIC CHARGES
-----------------------
   0 H :    0.031492
   1 H :    0.103765
   2 Be:    0.072538
   3 H :    0.017982
   4 F :   -0.303089
   5 C :    0.017306
   6 H :   -0.040368
   7 H :    0.100375
Sum of atomic charges:    0.0000000

LOEWDIN ATOMIC CHARGES
----------------------
   0 H :    0.081910
   1 H :   -0.048741
   2 Be:    0.351394
   3 H :    0.076165
   4 F :   -0.187185
   5 C :   -0.123102
   6 H :   -0.100912
   7 H :   -0.049528

  Mayer bond orders larger than 0.100000
B(  0-H ,  2-Be) :   0.1428 B(  0-H ,  3-H ) :   0.9156 B(  1-H ,  5-C ) :   1.0093
B(  2-Be,  3-H ) :   0.1208 B(  2-Be,  5-C ) :   1.0672 B(  2-Be,  6-H ) :   0.8878
B(  4-F ,  5-C ) :   0.7526 B(  5-C ,  7-H ) :   1.0125

FINAL SINGLE POINT ENERGY      -155.627430731328

DIPOLE MOMENT
-------------
                                X             Y             Z
Electronic contribution:     -0.19724      -3.57554      -0.73792
Nuclear contribution   :      0.26588       3.83479       0.81982
                        -----------------------------------------
Total Dipole Moment    :      0.06863       0.25925       0.08190
                        -----------------------------------------
Magnitude (a.u.)       :      0.28041
Magnitude (Debye)      :      0.71275

Rotational constants in cm-1:     0.879452     0.304630     0.236523
Rotational constants in MHz : 26365.310047  9132.583609  7090.795310

                             ****ORCA TERMINATED NORMALLY****
TOTAL RUN TIME: 0 days 0 hours 0 minutes 6 seconds 15 msec
