                         Program Version 4.2.0 -  RELEASE  -
|  1> #
|  2> # 076 wB97M-V/Def2-TZVPPD
|  3> #
|  4> ! wb97m-v def2-tzvppd def2/jk grid4 nofinalgrid
|  5>
|  6> *xyz 0 1
|  7> H         -0.10732        2.90062       -0.02721
|  8> H          0.35760       -1.90152        0.97790
|  9> Li        -0.27775        0.78724       -0.00029
| 10> H          0.84572       -0.46906       -0.34423
| 11> H         -1.10236       -0.68915        0.32212
| 12> B         -0.04346       -1.30148        0.00006
| 13> H          0.61490        2.68175        0.02928
| 14> H         -0.28734       -2.00840       -0.95762
| 15> *
| 16>
| 17> %maxcore 5000
| 18>
| 19> %pal
| 20> nprocs = 24
| 21> end
| 22>
| 23>
| 24>                          ****END OF INPUT****

CARTESIAN COORDINATES (ANGSTROEM)
---------------------------------
  H     -0.107320    2.900620   -0.027210
  H      0.357600   -1.901520    0.977900
  Li    -0.277750    0.787240   -0.000290
  H      0.845720   -0.469060   -0.344230
  H     -1.102360   -0.689150    0.322120
  B     -0.043460   -1.301480    0.000060
  H      0.614900    2.681750    0.029280
  H     -0.287340   -2.008400   -0.957620

 Total Charge           Charge          ....    0
 Multiplicity           Mult            ....    1
 Number of Electrons    NEL             ....   14
 Basis Dimension        Dim             ....  161

ORBITAL ENERGIES
----------------

  NO   OCC          E(Eh)            E(eV)
   0   2.0000      -6.809740      -185.3024
   1   2.0000      -2.148027       -58.4508
   2   2.0000      -0.632166       -17.2021
   3   2.0000      -0.598670       -16.2906
   4   2.0000      -0.395842       -10.7714
   5   2.0000      -0.380844       -10.3633
   6   2.0000      -0.367968       -10.0129
   7   0.0000      -0.008977        -0.2443
   8   0.0000       0.007195         0.1958
   9   0.0000       0.011641         0.3168
  10   0.0000       0.022864         0.6221
  11   0.0000       0.058447         1.5904

MULLIKEN ATOMIC CHARGES
-----------------------
   0 H :    0.058155
   1 H :    0.055650
   2 Li:    0.653694
   3 H :   -0.163711
   4 H :   -0.119547
   5 B :   -0.563501
   6 H :    0.022083
   7 H :    0.057177
Sum of atomic charges:    0.0000000

LOEWDIN ATOMIC CHARGES
----------------------
   0 H :    0.102324
   1 H :   -0.066576
   2 Li:    0.319709
   3 H :   -0.079269
   4 H :   -0.072142
   5 B :   -0.236424
   6 H :    0.099057
   7 H :   -0.066679

  Mayer bond orders larger than 0.100000
B(  0-H ,  6-H ) :   0.9204 B(  1-H ,  5-B ) :   0.9756 B(  2-Li,  3-H ) :   0.1281
B(  2-Li,  4-H ) :   0.1310 B(  2-Li,  5-B ) :   0.1518 B(  3-H ,  5-B ) :   0.8645
B(  4-H ,  5-B ) :   0.8675 B(  5-B ,  7-H ) :   0.9756

FINAL SINGLE POINT ENERGY       -35.909232580879

DIPOLE MOMENT
-------------
                                X             Y             Z
Electronic contribution:     -1.17433       0.79183      -0.00102
Nuclear contribution   :      0.92718       2.12684       0.00062
                        -----------------------------------------
Total Dipole Moment    :     -0.24715       2.91866      -0.00039
                        -----------------------------------------
Magnitude (a.u.)       :      2.92911
Magnitude (Debye)      :      7.44521

Rotational constants in cm-1:     3.344864     0.365518     0.359194
Rotational constants in MHz : 100276.510227 10957.945080 10768.366475

                             ****ORCA TERMINATED NORMALLY****
TOTAL RUN TIME: 0 days 0 hours 0 minutes 4 seconds 819 msec
