                         Program Version 4.2.0 -  RELEASE  -
|  1> #
|  2> # 088 wB97M-V/Def2-TZVPPD
|  3> #
|  4> ! wb97m-v def2-tzvppd def2/jk grid4 nofinalgrid
|  5>
|  6> *xyz 0 1
|  7> C          0.81376        0.10372        0.34640
|  8> H          0.87654        0.17194        1.44377
|  9> H          1.67271        0.57624       -0.15360
| 10> N          0.56076       -1.37061        0.00951
| 11> C         -0.53618        0.54868       -0.29052
| 12> S         -2.13839       -0.48145        0.15104
| 13> H         -0.69523        1.33853       -1.02043
| 14> C         -0.55397       -0.88705       -0.48618
| 15> *
| 16>
| 17> %maxcore 5000
| 18>
| 19> %pal
| 20> nprocs = 24
| 21> end
| 22>
| 23>
| 24>                          ****END OF INPUT****

CARTESIAN COORDINATES (ANGSTROEM)
---------------------------------
  C      0.813760    0.103720    0.346400
  H      0.876540    0.171940    1.443770
  H      1.672710    0.576240   -0.153600
  N      0.560760   -1.370610    0.009510
  C     -0.536180    0.548680   -0.290520
  S     -2.138390   -0.481450    0.151040
  H     -0.695230    1.338530   -1.020430
  C     -0.553970   -0.887050   -0.486180

 Total Charge           Charge          ....    0
 Multiplicity           Mult            ....    1
 Number of Electrons    NEL             ....   44
 Basis Dimension        Dim             ....  250

ORBITAL ENERGIES
----------------

  NO   OCC          E(Eh)            E(eV)
   0   2.0000     -89.234417     -2428.1919
   1   2.0000     -14.522417      -395.1751
   2   2.0000     -10.452109      -284.4163
   3   2.0000     -10.423334      -283.6333
   4   2.0000     -10.411404      -283.3087
   5   2.0000      -8.159964      -222.0439
   6   2.0000      -6.069959      -165.1720
   7   2.0000      -6.068570      -165.1342
   8   2.0000      -6.060781      -164.9222
   9   2.0000      -1.124434       -30.5974
  10   2.0000      -0.945054       -25.7162
  11   2.0000      -0.838139       -22.8069
  12   2.0000      -0.742616       -20.2076
  13   2.0000      -0.643505       -17.5107
  14   2.0000      -0.596312       -16.2265
  15   2.0000      -0.572033       -15.5658
  16   2.0000      -0.558472       -15.1968
  17   2.0000      -0.473031       -12.8718
  18   2.0000      -0.443289       -12.0625
  19   2.0000      -0.420755       -11.4493
  20   2.0000      -0.355085        -9.6623
  21   2.0000      -0.337929        -9.1955
  22   0.0000      -0.018569        -0.5053
  23   0.0000       0.022862         0.6221
  24   0.0000       0.034298         0.9333
  25   0.0000       0.045861         1.2479
  26   0.0000       0.048339         1.3154

MULLIKEN ATOMIC CHARGES
-----------------------
   0 C :   -0.052766
   1 H :    0.182775
   2 H :    0.212493
   3 N :   -0.591231
   4 C :   -0.335138
   5 S :   -0.131312
   6 H :    0.248869
   7 C :    0.466310
Sum of atomic charges:   -0.0000000

LOEWDIN ATOMIC CHARGES
----------------------
   0 C :   -0.039239
   1 H :    0.024660
   2 H :    0.020303
   3 N :    0.082169
   4 C :   -0.268455
   5 S :    0.860723
   6 H :   -0.017319
   7 C :   -0.662843

  Mayer bond orders larger than 0.100000
B(  0-C ,  1-H ) :   1.0198 B(  0-C ,  2-H ) :   0.9779 B(  0-C ,  3-N ) :   0.5848
B(  0-C ,  4-C ) :   0.7733 B(  0-C ,  7-C ) :   0.1427 B(  3-N ,  4-C ) :   0.1760
B(  3-N ,  7-C ) :   1.3192 B(  4-C ,  5-S ) :   0.9064 B(  4-C ,  6-H ) :   1.0173
B(  4-C ,  7-C ) :   0.8058 B(  5-S ,  7-C ) :   1.0509

FINAL SINGLE POINT ENERGY      -568.885107187367

DIPOLE MOMENT
-------------
                                X             Y             Z
Electronic contribution:     -3.85313      -2.09137      -0.37769
Nuclear contribution   :      3.84230       3.12311       0.24615
                        -----------------------------------------
Total Dipole Moment    :     -0.01083       1.03174      -0.13154
                        -----------------------------------------
Magnitude (a.u.)       :      1.04015
Magnitude (Debye)      :      2.64384

Rotational constants in cm-1:     0.386346     0.125803     0.105869
Rotational constants in MHz : 11582.371237  3771.469962  3173.859054

                             ****ORCA TERMINATED NORMALLY****
TOTAL RUN TIME: 0 days 0 hours 0 minutes 18 seconds 943 msec
