                         Program Version 4.2.0 -  RELEASE  -
|  1> #
|  2> # 096 wB97M-V/Def2-TZVPPD
|  3> #
|  4> ! wb97m-v def2-tzvppd def2/jk grid4 nofinalgrid
|  5>
|  6> *xyz 0 1
|  7> H          0.74842        1.26851        0.59882
|  8> C         -0.16355        0.74665        0.30940
|  9> H          0.74849       -1.26857        0.59856
| 10> C         -0.16356       -0.74663        0.30935
| 11> H          1.21141        0.00004       -1.60315
| 12> H         -1.08115        1.25625        0.60788
| 13> P         -0.21890        0.00004       -1.42860
| 14> H         -1.08115       -1.25629        0.60773
| 15> *
| 16>
| 17> %maxcore 5000
| 18>
| 19> %pal
| 20> nprocs = 24
| 21> end
| 22>
| 23>
| 24>                          ****END OF INPUT****

CARTESIAN COORDINATES (ANGSTROEM)
---------------------------------
  H      0.748420    1.268510    0.598820
  C     -0.163550    0.746650    0.309400
  H      0.748490   -1.268570    0.598560
  C     -0.163560   -0.746630    0.309350
  H      1.211410    0.000040   -1.603150
  H     -1.081150    1.256250    0.607880
  P     -0.218900    0.000040   -1.428600
  H     -1.081150   -1.256290    0.607730

 Total Charge           Charge          ....    0
 Multiplicity           Mult            ....    1
 Number of Electrons    NEL             ....   32
 Basis Dimension        Dim             ....  207

ORBITAL ENERGIES
----------------

  NO   OCC          E(Eh)            E(eV)
   0   2.0000     -77.368319     -2105.2990
   1   2.0000     -10.363505      -282.0053
   2   2.0000     -10.363275      -281.9990
   3   2.0000      -6.716436      -182.7635
   4   2.0000      -4.829645      -131.4213
   5   2.0000      -4.826908      -131.3468
   6   2.0000      -4.825835      -131.3176
   7   2.0000      -0.933661       -25.4062
   8   2.0000      -0.720430       -19.6039
   9   2.0000      -0.684431       -18.6243
  10   2.0000      -0.589074       -16.0295
  11   2.0000      -0.536165       -14.5898
  12   2.0000      -0.473671       -12.8892
  13   2.0000      -0.429136       -11.6774
  14   2.0000      -0.360822        -9.8185
  15   2.0000      -0.358523        -9.7559
  16   0.0000       0.042765         1.1637
  17   0.0000       0.047919         1.3040
  18   0.0000       0.061138         1.6637
  19   0.0000       0.083052         2.2600
  20   0.0000       0.097455         2.6519

MULLIKEN ATOMIC CHARGES
-----------------------
   0 H :    0.243656
   1 C :   -0.456714
   2 H :    0.243621
   3 C :   -0.456618
   4 H :    0.045222
   5 H :    0.253288
   6 P :   -0.125735
   7 H :    0.253280
Sum of atomic charges:    0.0000000

LOEWDIN ATOMIC CHARGES
----------------------
   0 H :   -0.041231
   1 C :   -0.265643
   2 H :   -0.041197
   3 C :   -0.265672
   4 H :   -0.172582
   5 H :   -0.046687
   6 P :    0.879713
   7 H :   -0.046700

  Mayer bond orders larger than 0.100000
B(  0-H ,  1-C ) :   0.9724 B(  1-C ,  3-C ) :   0.6591 B(  1-C ,  5-H ) :   0.9766
B(  1-C ,  6-P ) :   0.8623 B(  2-H ,  3-C ) :   0.9724 B(  3-C ,  6-P ) :   0.8623
B(  3-C ,  7-H ) :   0.9766 B(  4-H ,  6-P ) :   1.0064

FINAL SINGLE POINT ENERGY      -420.512670871300

DIPOLE MOMENT
-------------
                                X             Y             Z
Electronic contribution:     -1.19784       0.00012      -3.91438
Nuclear contribution   :      1.35041      -0.00018       4.31337
                        -----------------------------------------
Total Dipole Moment    :      0.15257      -0.00006       0.39898
                        -----------------------------------------
Magnitude (a.u.)       :      0.42716
Magnitude (Debye)      :      1.08576

Rotational constants in cm-1:     0.669213     0.315945     0.248635
Rotational constants in MHz : 20062.492743  9471.799383  7453.892881

                             ****ORCA TERMINATED NORMALLY****
TOTAL RUN TIME: 0 days 0 hours 0 minutes 9 seconds 315 msec
