                         Program Version 4.2.0 -  RELEASE  -
|  1> #
|  2> # 104 wB97M-V/Def2-TZVPPD
|  3> #
|  4> ! wb97m-v def2-tzvppd def2/jk grid4 nofinalgrid
|  5>
|  6> *xyz 0 2
|  7> C          0.18239        0.81792       -0.17289
|  8> H         -2.32613        0.04031        1.01174
|  9> H          2.24798        0.73105       -0.01871
| 10> C          1.34005        0.10819       -0.12066
| 11> H          0.11379        1.91914       -0.21133
| 12> Si        -1.43329       -0.14152       -0.20061
| 13> H         -1.02937       -1.64029       -0.13873
| 14> Li         0.90457       -1.83481       -0.14881
| 15> *
| 16>
| 17> %maxcore 5000
| 18>
| 19> %pal
| 20> nprocs = 24
| 21> end
| 22>
| 23>
| 24>                          ****END OF INPUT****

CARTESIAN COORDINATES (ANGSTROEM)
---------------------------------
  C      0.182390    0.817920   -0.172890
  H     -2.326130    0.040310    1.011740
  H      2.247980    0.731050   -0.018710
  C      1.340050    0.108190   -0.120660
  H      0.113790    1.919140   -0.211330
  Si    -1.433290   -0.141520   -0.200610
  H     -1.029370   -1.640290   -0.138730
  Li     0.904570   -1.834810   -0.148810

 Total Charge           Charge          ....    0
 Multiplicity           Mult            ....    2
 Number of Electrons    NEL             ....   33
 Basis Dimension        Dim             ....  212

ORBITAL ENERGIES
----------------
                 SPIN UP ORBITALS
  NO   OCC          E(Eh)            E(eV)
   0   1.0000     -66.403641     -1806.9349
   1   1.0000     -10.320858      -280.8448
   2   1.0000     -10.297918      -280.2206
   3   1.0000      -5.437240      -147.9548
   4   1.0000      -3.754931      -102.1769
   5   1.0000      -3.750993      -102.0697
   6   1.0000      -3.748381      -101.9986
   7   1.0000      -2.118667       -57.6519
   8   1.0000      -0.837972       -22.8024
   9   1.0000      -0.654877       -17.8201
  10   1.0000      -0.589061       -16.0292
  11   1.0000      -0.513148       -13.9635
  12   1.0000      -0.441781       -12.0215
  13   1.0000      -0.413849       -11.2614
  14   1.0000      -0.360040        -9.7972
  15   1.0000      -0.305950        -8.3253
  16   1.0000      -0.263557        -7.1718
  17   0.0000      -0.016278        -0.4429
  18   0.0000       0.016398         0.4462
  19   0.0000       0.022183         0.6036
  20   0.0000       0.038125         1.0374
  21   0.0000       0.066152         1.8001

                 SPIN DOWN ORBITALS
  NO   OCC          E(Eh)            E(eV)
   0   1.0000     -66.400436     -1806.8477
   1   1.0000     -10.320089      -280.8239
   2   1.0000     -10.295709      -280.1605
   3   1.0000      -5.433864      -147.8629
   4   1.0000      -3.748798      -102.0100
   5   1.0000      -3.746361      -101.9437
   6   1.0000      -3.744819      -101.9017
   7   1.0000      -2.118705       -57.6529
   8   1.0000      -0.833277       -22.6746
   9   1.0000      -0.642208       -17.4754
  10   1.0000      -0.581240       -15.8163
  11   1.0000      -0.506542       -13.7837
  12   1.0000      -0.434400       -11.8206
  13   1.0000      -0.405950       -11.0465
  14   1.0000      -0.342459        -9.3188
  15   1.0000      -0.294356        -8.0098
  16   0.0000      -0.051423        -1.3993
  17   0.0000      -0.016048        -0.4367
  18   0.0000       0.012893         0.3508
  19   0.0000       0.015654         0.4260
  20   0.0000       0.031729         0.8634

MULLIKEN ATOMIC CHARGES AND SPIN POPULATIONS
--------------------------------------------
   0 C :   -0.099054    0.074758
   1 H :   -0.011999    0.054865
   2 H :    0.092471    0.018111
   3 C :   -0.832924    0.115462
   4 H :    0.242652   -0.015561
   5 Si:    0.102690    0.697260
   6 H :   -0.242588    0.048340
   7 Li:    0.748751    0.006764
Sum of atomic charges         :    0.0000000

LOEWDIN ATOMIC CHARGES AND SPIN POPULATIONS
-------------------------------------------
   0 C :   -0.427837    0.101085
   1 H :   -0.161188    0.081836
   2 H :   -0.121801    0.018085
   3 C :   -0.145831    0.116063
   4 H :   -0.086225    0.000290
   5 Si:    0.701843    0.608350
   6 H :   -0.145097    0.066057
   7 Li:    0.386137    0.008235

  Mayer bond orders larger than 0.100000
B(  0-C ,  3-C ) :   1.3796 B(  0-C ,  4-H ) :   0.9552 B(  0-C ,  5-Si) :   1.0040
B(  1-H ,  5-Si) :   0.9593 B(  2-H ,  3-C ) :   1.2024 B(  3-C ,  5-Si) :   0.2632
B(  3-C ,  7-Li) :   0.2706 B(  5-Si,  6-H ) :   0.7201 B(  6-H ,  7-Li) :   0.1326

FINAL SINGLE POINT ENERGY      -375.495456642609

DIPOLE MOMENT
-------------
                                X             Y             Z
Electronic contribution:      1.18990      -4.38780      -1.19028
Nuclear contribution   :     -0.90522       2.81558       1.17165
                        -----------------------------------------
Total Dipole Moment    :      0.28468      -1.57222      -0.01863
                        -----------------------------------------
Magnitude (a.u.)       :      1.59789
Magnitude (Debye)      :      4.06152

Rotational constants in cm-1:     0.419182     0.179284     0.128388
Rotational constants in MHz : 12566.751634  5374.809128  3848.967152

                             ****ORCA TERMINATED NORMALLY****
TOTAL RUN TIME: 0 days 0 hours 0 minutes 11 seconds 248 msec
