                         Program Version 4.2.0 -  RELEASE  -
|  1> #
|  2> # 111 wB97M-V/Def2-TZVPPD
|  3> #
|  4> ! wb97m-v def2-tzvppd def2/jk grid4 nofinalgrid
|  5>
|  6> *xyz 0 2
|  7> N          0.85218        0.06581        1.54293
|  8> C         -0.45432        0.04016        1.51127
|  9> H          0.51389       -1.04630       -1.15231
| 10> H         -1.27128       -0.21181        2.19239
| 11> H          0.93075        0.61434       -1.62997
| 12> C          0.02563        0.43731        0.29642
| 13> C          0.17679        0.00817       -1.10677
| 14> H         -0.77364        0.09232       -1.65395
| 15> *
| 16>
| 17> %maxcore 5000
| 18>
| 19> %pal
| 20> nprocs = 24
| 21> end
| 22>
| 23>
| 24>                          ****END OF INPUT****

CARTESIAN COORDINATES (ANGSTROEM)
---------------------------------
  N      0.852180    0.065810    1.542930
  C     -0.454320    0.040160    1.511270
  H      0.513890   -1.046300   -1.152310
  H     -1.271280   -0.211810    2.192390
  H      0.930750    0.614340   -1.629970
  C      0.025630    0.437310    0.296420
  C      0.176790    0.008170   -1.106770
  H     -0.773640    0.092320   -1.653950

 Total Charge           Charge          ....    0
 Multiplicity           Mult            ....    2
 Number of Electrons    NEL             ....   29
 Basis Dimension        Dim             ....  216

ORBITAL ENERGIES
----------------
                 SPIN UP ORBITALS
  NO   OCC          E(Eh)            E(eV)
   0   1.0000     -14.535080      -395.5196
   1   1.0000     -10.422246      -283.6037
   2   1.0000     -10.400800      -283.0202
   3   1.0000     -10.364030      -282.0196
   4   1.0000      -1.122576       -30.5468
   5   1.0000      -0.876290       -23.8451
   6   1.0000      -0.722328       -19.6555
   7   1.0000      -0.695134       -18.9156
   8   1.0000      -0.576211       -15.6795
   9   1.0000      -0.558159       -15.1883
  10   1.0000      -0.533944       -14.5293
  11   1.0000      -0.495443       -13.4817
  12   1.0000      -0.462812       -12.5937
  13   1.0000      -0.389955       -10.6112
  14   1.0000      -0.275474        -7.4960
  15   0.0000       0.033800         0.9197
  16   0.0000       0.047189         1.2841
  17   0.0000       0.059071         1.6074
  18   0.0000       0.079163         2.1541
  19   0.0000       0.098812         2.6888

                 SPIN DOWN ORBITALS
  NO   OCC          E(Eh)            E(eV)
   0   1.0000     -14.526265      -395.2798
   1   1.0000     -10.424595      -283.6677
   2   1.0000     -10.389729      -282.7189
   3   1.0000     -10.363749      -282.0119
   4   1.0000      -1.109184       -30.1824
   5   1.0000      -0.867892       -23.6165
   6   1.0000      -0.717424       -19.5221
   7   1.0000      -0.680187       -18.5088
   8   1.0000      -0.566328       -15.4106
   9   1.0000      -0.536086       -14.5876
  10   1.0000      -0.529284       -14.4026
  11   1.0000      -0.472669       -12.8620
  12   1.0000      -0.449779       -12.2391
  13   1.0000      -0.376806       -10.2534
  14   0.0000       0.007381         0.2008
  15   0.0000       0.041814         1.1378
  16   0.0000       0.051778         1.4090
  17   0.0000       0.055115         1.4998
  18   0.0000       0.064453         1.7539

MULLIKEN ATOMIC CHARGES AND SPIN POPULATIONS
--------------------------------------------
   0 N :   -0.458078    0.372405
   1 C :    0.071972   -0.148266
   2 H :    0.244093    0.027744
   3 H :    0.203224   -0.000630
   4 H :    0.183384    0.014628
   5 C :    0.116953    0.663365
   6 C :   -0.574125    0.067365
   7 H :    0.212577    0.003389
Sum of atomic charges         :   -0.0000000

LOEWDIN ATOMIC CHARGES AND SPIN POPULATIONS
-------------------------------------------
   0 N :    0.141081    0.365368
   1 C :   -0.058618    0.010715
   2 H :   -0.002162    0.025121
   3 H :    0.009283   -0.011839
   4 H :   -0.013006    0.008709
   5 C :   -0.170786    0.512385
   6 C :    0.107441    0.089894
   7 H :   -0.013232   -0.000352

  Mayer bond orders larger than 0.100000
B(  0-N ,  1-C ) :   1.5340 B(  0-N ,  5-C ) :   0.6438 B(  1-C ,  3-H ) :   0.9748
B(  1-C ,  5-C ) :   1.0950 B(  2-H ,  6-C ) :   0.8995 B(  4-H ,  6-C ) :   1.0252
B(  5-C ,  6-C ) :   0.6702 B(  6-C ,  7-H ) :   1.0047

FINAL SINGLE POINT ENERGY      -171.320295678865

DIPOLE MOMENT
-------------
                                X             Y             Z
Electronic contribution:      0.24416       0.70405       3.67371
Nuclear contribution   :     -1.13576      -0.94785      -4.02666
                        -----------------------------------------
Total Dipole Moment    :     -0.89160      -0.24380      -0.35295
                        -----------------------------------------
Magnitude (a.u.)       :      0.98942
Magnitude (Debye)      :      2.51492

Rotational constants in cm-1:     0.919406     0.218621     0.189338
Rotational constants in MHz : 27563.112958  6554.079895  5676.208610

                             ****ORCA TERMINATED NORMALLY****
TOTAL RUN TIME: 0 days 0 hours 0 minutes 14 seconds 19 msec
