                         Program Version 4.2.0 -  RELEASE  -
|  1> #
|  2> # 123 wB97M-V/Def2-TZVPPD
|  3> #
|  4> ! wb97m-v def2-tzvppd def2/jk grid4 nofinalgrid
|  5>
|  6> *xyz 0 2
|  7> H         -0.05566       -1.00378        1.35004
|  8> H         -0.85108        0.57288        1.07820
|  9> C          0.00090       -0.05557        0.78344
| 10> H         -0.84105       -0.66759       -1.01558
| 11> H          0.91403        0.47335        1.08996
| 12> H          0.01842        1.61333       -1.60506
| 13> H          0.81267       -0.72579       -1.00914
| 14> N          0.00176       -0.20682       -0.67186
| 15> *
| 16>
| 17> %maxcore 5000
| 18>
| 19> %pal
| 20> nprocs = 24
| 21> end
| 22>
| 23>
| 24>                          ****END OF INPUT****

CARTESIAN COORDINATES (ANGSTROEM)
---------------------------------
  H     -0.055660   -1.003780    1.350040
  H     -0.851080    0.572880    1.078200
  C      0.000900   -0.055570    0.783440
  H     -0.841050   -0.667590   -1.015580
  H      0.914030    0.473350    1.089960
  H      0.018420    1.613330   -1.605060
  H      0.812670   -0.725790   -1.009140
  N      0.001760   -0.206820   -0.671860

 Total Charge           Charge          ....    0
 Multiplicity           Mult            ....    2
 Number of Electrons    NEL             ....   19
 Basis Dimension        Dim             ....  176

ORBITAL ENERGIES
----------------
                 SPIN UP ORBITALS
  NO   OCC          E(Eh)            E(eV)
   0   1.0000     -14.516721      -395.0201
   1   1.0000     -10.374423      -282.3024
   2   1.0000      -1.021787       -27.8042
   3   1.0000      -0.793413       -21.5899
   4   1.0000      -0.620115       -16.8742
   5   1.0000      -0.565159       -15.3787
   6   1.0000      -0.529432       -14.4066
   7   1.0000      -0.483232       -13.1494
   8   1.0000      -0.409889       -11.1536
   9   1.0000      -0.289077        -7.8662
  10   0.0000       0.041287         1.1235
  11   0.0000       0.063690         1.7331
  12   0.0000       0.094645         2.5754
  13   0.0000       0.115285         3.1371
  14   0.0000       0.132065         3.5937

                 SPIN DOWN ORBITALS
  NO   OCC          E(Eh)            E(eV)
   0   1.0000     -14.511911      -394.8892
   1   1.0000     -10.374494      -282.3043
   2   1.0000      -1.015948       -27.6454
   3   1.0000      -0.791509       -21.5381
   4   1.0000      -0.617096       -16.7920
   5   1.0000      -0.560912       -15.2632
   6   1.0000      -0.524103       -14.2616
   7   1.0000      -0.482459       -13.1284
   8   1.0000      -0.366156        -9.9636
   9   0.0000      -0.028121        -0.7652
  10   0.0000       0.038883         1.0581
  11   0.0000       0.051716         1.4073
  12   0.0000       0.079427         2.1613
  13   0.0000       0.106506         2.8982

MULLIKEN ATOMIC CHARGES AND SPIN POPULATIONS
--------------------------------------------
   0 H :    0.240817    0.014618
   1 H :    0.237134    0.003040
   2 C :   -0.558061   -0.027105
   3 H :    0.145382   -0.024371
   4 H :    0.235314    0.002285
   5 H :   -0.047345    0.846423
   6 H :    0.147151   -0.023286
   7 N :   -0.400392    0.208395
Sum of atomic charges         :    0.0000000

LOEWDIN ATOMIC CHARGES AND SPIN POPULATIONS
-------------------------------------------
   0 H :   -0.015658    0.005304
   1 H :   -0.015606    0.005542
   2 C :    0.037535    0.017729
   3 H :   -0.106806    0.013609
   4 H :   -0.014408    0.004457
   5 H :    0.025861    0.733314
   6 H :   -0.105541    0.013138
   7 N :    0.194622    0.206906

  Mayer bond orders larger than 0.100000
B(  0-H ,  2-C ) :   0.9680 B(  1-H ,  2-C ) :   0.9648 B(  2-C ,  4-H ) :   0.9634
B(  2-C ,  7-N ) :   0.7348 B(  3-H ,  7-N ) :   1.0368 B(  5-H ,  7-N ) :   0.4019
B(  6-H ,  7-N ) :   1.0365

FINAL SINGLE POINT ENERGY       -96.331225226157

DIPOLE MOMENT
-------------
                                X             Y             Z
Electronic contribution:     -0.00885      -1.74535       0.54795
Nuclear contribution   :     -0.00825       0.82489      -0.08847
                        -----------------------------------------
Total Dipole Moment    :     -0.01710      -0.92047       0.45948
                        -----------------------------------------
Magnitude (a.u.)       :      1.02892
Magnitude (Debye)      :      2.61531

Rotational constants in cm-1:     2.000356     0.660608     0.601270
Rotational constants in MHz : 59969.149740 19804.516397 18025.616086

                             ****ORCA TERMINATED NORMALLY****
TOTAL RUN TIME: 0 days 0 hours 0 minutes 8 seconds 64 msec
