                         Program Version 4.2.0 -  RELEASE  -
|  1> #
|  2> # 125 wB97M-V/Def2-TZVPPD
|  3> #
|  4> ! wb97m-v def2-tzvppd def2/jk grid4 nofinalgrid
|  5>
|  6> *xyz 0 1
|  7> Li        -0.48880       -0.51538       -0.00659
|  8> H         -0.55944        2.54233       -0.00436
|  9> H         -2.17580       -1.82520        0.01329
| 10> C         -0.08896        1.54088       -0.00480
| 11> H         -1.56083       -2.26841        0.00934
| 12> Cl         1.44004       -1.55839       -0.00318
| 13> H          1.87023        0.32576       -0.00203
| 14> S          1.56356        1.75840       -0.00167
| 15> *
| 16>
| 17> %maxcore 5000
| 18>
| 19> %pal
| 20> nprocs = 24
| 21> end
| 22>
| 23>
| 24>                          ****END OF INPUT****

CARTESIAN COORDINATES (ANGSTROEM)
---------------------------------
  Li    -0.488800   -0.515380   -0.006590
  H     -0.559440    2.542330   -0.004360
  H     -2.175800   -1.825200    0.013290
  C     -0.088960    1.540880   -0.004800
  H     -1.560830   -2.268410    0.009340
  Cl     1.440040   -1.558390   -0.003180
  H      1.870230    0.325760   -0.002030
  S      1.563560    1.758400   -0.001670

 Total Charge           Charge          ....    0
 Multiplicity           Mult            ....    1
 Number of Electrons    NEL             ....   46
 Basis Dimension        Dim             ....  229

ORBITAL ENERGIES
----------------

  NO   OCC          E(Eh)            E(eV)
   0   2.0000    -101.789288     -2769.8273
   1   2.0000     -89.236787     -2428.2564
   2   2.0000     -10.412827      -283.3474
   3   2.0000      -9.563129      -260.2260
   4   2.0000      -8.164912      -222.1786
   5   2.0000      -7.262753      -197.6296
   6   2.0000      -7.262212      -197.6148
   7   2.0000      -7.261658      -197.5998
   8   2.0000      -6.072413      -165.2388
   9   2.0000      -6.071953      -165.2263
  10   2.0000      -6.069684      -165.1645
  11   2.0000      -2.103495       -57.2390
  12   2.0000      -0.941954       -25.6319
  13   2.0000      -0.853964       -23.2375
  14   2.0000      -0.717390       -19.5212
  15   2.0000      -0.593068       -16.1382
  16   2.0000      -0.537433       -14.6243
  17   2.0000      -0.515918       -14.0389
  18   2.0000      -0.434806       -11.8317
  19   2.0000      -0.389184       -10.5902
  20   2.0000      -0.379692       -10.3320
  21   2.0000      -0.362755        -9.8711
  22   2.0000      -0.342505        -9.3200
  23   0.0000      -0.030081        -0.8186
  24   0.0000       0.007460         0.2030
  25   0.0000       0.021620         0.5883
  26   0.0000       0.022666         0.6168
  27   0.0000       0.031832         0.8662

MULLIKEN ATOMIC CHARGES
-----------------------
   0 Li:    0.717053
   1 H :    0.139898
   2 H :    0.004789
   3 C :   -0.390045
   4 H :    0.060213
   5 Cl:   -0.679776
   6 H :    0.211960
   7 S :   -0.064093
Sum of atomic charges:    0.0000000

LOEWDIN ATOMIC CHARGES
----------------------
   0 Li:   -0.031068
   1 H :   -0.166655
   2 H :    0.096286
   3 C :   -0.359661
   4 H :    0.067964
   5 Cl:   -0.030948
   6 H :   -0.416838
   7 S :    0.840919

  Mayer bond orders larger than 0.100000
B(  0-Li,  3-C ) :   0.1096 B(  0-Li,  5-Cl) :   0.2552 B(  1-H ,  3-C ) :   1.1092
B(  2-H ,  4-H ) :   0.9350 B(  3-C ,  7-S ) :   1.6198 B(  5-Cl,  6-H ) :   0.2510
B(  6-H ,  7-S ) :   0.7963

FINAL SINGLE POINT ENERGY      -906.366312438696

DIPOLE MOMENT
-------------
                                X             Y             Z
Electronic contribution:      3.82381      -0.05294      -0.03062
Nuclear contribution   :     -5.38329       1.10078       0.02957
                        -----------------------------------------
Total Dipole Moment    :     -1.55949       1.04784      -0.00105
                        -----------------------------------------
Magnitude (a.u.)       :      1.87882
Magnitude (Debye)      :      4.77558

Rotational constants in cm-1:     0.253463     0.073830     0.057176
Rotational constants in MHz :  7598.615767  2213.361097  1714.083710

                             ****ORCA TERMINATED NORMALLY****
TOTAL RUN TIME: 0 days 0 hours 0 minutes 9 seconds 403 msec
