                         Program Version 4.2.0 -  RELEASE  -
|  1> #
|  2> # 136 wB97M-V/Def2-TZVPPD
|  3> #
|  4> ! wb97m-v def2-tzvppd def2/jk grid4 nofinalgrid
|  5>
|  6> *xyz 0 1
|  7> H         -0.64763        2.95877       -0.31431
|  8> H         -0.38809        2.29902       -0.56811
|  9> H         -0.46982        0.02713        1.23682
| 10> H         -0.44619       -2.23309       -1.25807
| 11> H          1.15514       -0.83076        1.35211
| 12> O          0.58676       -0.20120       -0.67466
| 13> C          0.25357       -0.64235        0.76247
| 14> B         -0.04374       -1.37752       -0.53625
| 15> *
| 16>
| 17> %maxcore 5000
| 18>
| 19> %pal
| 20> nprocs = 24
| 21> end
| 22>
| 23>
| 24>                          ****END OF INPUT****

CARTESIAN COORDINATES (ANGSTROEM)
---------------------------------
  H     -0.647630    2.958770   -0.314310
  H     -0.388090    2.299020   -0.568110
  H     -0.469820    0.027130    1.236820
  H     -0.446190   -2.233090   -1.258070
  H      1.155140   -0.830760    1.352110
  O      0.586760   -0.201200   -0.674660
  C      0.253570   -0.642350    0.762470
  B     -0.043740   -1.377520   -0.536250

 Total Charge           Charge          ....    0
 Multiplicity           Mult            ....    1
 Number of Electrons    NEL             ....   24
 Basis Dimension        Dim             ....  199

ORBITAL ENERGIES
----------------

  NO   OCC          E(Eh)            E(eV)
   0   2.0000     -19.369998      -527.0844
   1   2.0000     -10.392784      -282.8020
   2   2.0000      -6.940672      -188.8653
   3   2.0000      -1.177945       -32.0535
   4   2.0000      -0.786715       -21.4076
   5   2.0000      -0.621479       -16.9113
   6   2.0000      -0.580756       -15.8032
   7   2.0000      -0.568113       -15.4591
   8   2.0000      -0.522543       -14.2191
   9   2.0000      -0.492047       -13.3893
  10   2.0000      -0.434153       -11.8139
  11   2.0000      -0.397641       -10.8204
  12   0.0000       0.028260         0.7690
  13   0.0000       0.040967         1.1148
  14   0.0000       0.050490         1.3739
  15   0.0000       0.064966         1.7678
  16   0.0000       0.090907         2.4737

MULLIKEN ATOMIC CHARGES
-----------------------
   0 H :    0.257671
   1 H :   -0.254967
   2 H :    0.205547
   3 H :    0.198046
   4 H :    0.184245
   5 O :   -0.443057
   6 C :   -0.260347
   7 B :    0.112862
Sum of atomic charges:   -0.0000000

LOEWDIN ATOMIC CHARGES
----------------------
   0 H :    0.036411
   1 H :    0.010675
   2 H :   -0.017370
   3 H :    0.025640
   4 H :   -0.012687
   5 O :    0.037176
   6 C :    0.124248
   7 B :   -0.204093

  Mayer bond orders larger than 0.100000
B(  0-H ,  1-H ) :   0.9296 B(  2-H ,  6-C ) :   0.9515 B(  3-H ,  7-B ) :   0.9392
B(  4-H ,  6-C ) :   0.9880 B(  5-O ,  6-C ) :   0.7444 B(  5-O ,  7-B ) :   1.2499
B(  6-C ,  7-B ) :   0.9439

FINAL SINGLE POINT ENERGY      -141.126344887319

DIPOLE MOMENT
-------------
                                X             Y             Z
Electronic contribution:      1.52070      -5.63394      -1.06002
Nuclear contribution   :     -1.71035       5.24617       1.44476
                        -----------------------------------------
Total Dipole Moment    :     -0.18965      -0.38777       0.38475
                        -----------------------------------------
Magnitude (a.u.)       :      0.57824
Magnitude (Debye)      :      1.46977

Rotational constants in cm-1:     0.613602     0.430998     0.306642
Rotational constants in MHz : 18395.316675 12920.983545  9192.908699

                             ****ORCA TERMINATED NORMALLY****
TOTAL RUN TIME: 0 days 0 hours 0 minutes 7 seconds 629 msec
