                         Program Version 4.2.0 -  RELEASE  -
|  1> #
|  2> # 138 wB97M-V/Def2-TZVPPD
|  3> #
|  4> ! wb97m-v def2-tzvppd def2/jk grid4 nofinalgrid
|  5>
|  6> *xyz 0 1
|  7> H          0.64849       -1.47778       -0.13722
|  8> H         -0.62659       -0.18590       -3.09890
|  9> H         -0.40094       -0.71477       -2.61128
| 10> H          0.74472        0.82794        2.20080
| 11> H          0.41684       -1.04544        0.48242
| 12> H         -0.86873        0.85706        2.13389
| 13> Na         0.12711        1.09566       -0.53418
| 14> N         -0.04090        0.64323        1.56447
| 15> *
| 16>
| 17> %maxcore 5000
| 18>
| 19> %pal
| 20> nprocs = 24
| 21> end
| 22>
| 23>
| 24>                          ****END OF INPUT****

CARTESIAN COORDINATES (ANGSTROEM)
---------------------------------
  H      0.648490   -1.477780   -0.137220
  H     -0.626590   -0.185900   -3.098900
  H     -0.400940   -0.714770   -2.611280
  H      0.744720    0.827940    2.200800
  H      0.416840   -1.045440    0.482420
  H     -0.868730    0.857060    2.133890
  Na     0.127110    1.095660   -0.534180
  N     -0.040900    0.643230    1.564470

 Total Charge           Charge          ....    0
 Multiplicity           Mult            ....    1
 Number of Electrons    NEL             ....   24
 Basis Dimension        Dim             ....  174

ORBITAL ENERGIES
----------------

  NO   OCC          E(Eh)            E(eV)
   0   2.0000     -38.713797     -1053.4560
   1   2.0000     -14.376405      -391.2019
   2   2.0000      -2.357914       -64.1621
   3   2.0000      -1.261284       -34.3213
   4   2.0000      -1.260578       -34.3021
   5   2.0000      -1.257132       -34.2083
   6   2.0000      -0.828422       -22.5425
   7   2.0000      -0.580428       -15.7942
   8   2.0000      -0.505618       -13.7586
   9   2.0000      -0.457346       -12.4450
  10   2.0000      -0.333285        -9.0691
  11   2.0000      -0.247195        -6.7265
  12   0.0000      -0.016879        -0.4593
  13   0.0000       0.006423         0.1748
  14   0.0000       0.012922         0.3516
  15   0.0000       0.021270         0.5788
  16   0.0000       0.045919         1.2495

MULLIKEN ATOMIC CHARGES
-----------------------
   0 H :    0.003283
   1 H :    0.091376
   2 H :   -0.067884
   3 H :    0.004762
   4 H :   -0.053085
   5 H :   -0.025692
   6 Na:    0.774605
   7 N :   -0.727365
Sum of atomic charges:   -0.0000000

LOEWDIN ATOMIC CHARGES
----------------------
   0 H :    0.042561
   1 H :    0.051817
   2 H :    0.033994
   3 H :   -0.300800
   4 H :   -0.064517
   5 H :   -0.302621
   6 Na:    0.499656
   7 N :    0.039911

  Mayer bond orders larger than 0.100000
B(  0-H ,  4-H ) :   1.0568 B(  1-H ,  2-H ) :   0.9751 B(  3-H ,  7-N ) :   1.2201
B(  5-H ,  7-N ) :   1.2681 B(  6-Na,  7-N ) :   0.2983

FINAL SINGLE POINT ENERGY      -220.542890066810

DIPOLE MOMENT
-------------
                                X             Y             Z
Electronic contribution:      0.54105       6.99564      -0.96739
Nuclear contribution   :     -0.44551      -6.18803      -1.41111
                        -----------------------------------------
Total Dipole Moment    :      0.09554       0.80761      -2.37850
                        -----------------------------------------
Magnitude (a.u.)       :      2.51369
Magnitude (Debye)      :      6.38928

Rotational constants in cm-1:     0.993150     0.247328     0.211706
Rotational constants in MHz : 29773.882147  7414.712908  6346.774487

                             ****ORCA TERMINATED NORMALLY****
TOTAL RUN TIME: 0 days 0 hours 0 minutes 5 seconds 965 msec
