                         Program Version 4.2.0 -  RELEASE  -
|  1> #
|  2> # 143 wB97M-V/Def2-TZVPPD
|  3> #
|  4> ! wb97m-v def2-tzvppd def2/jk grid4 nofinalgrid
|  5>
|  6> *xyz 0 1
|  7> H          1.52165        0.00105        0.54476
|  8> C         -0.07322       -0.00002       -0.82132
|  9> C         -0.09157        0.00017        1.71374
| 10> H          0.24008        0.90261       -1.36729
| 11> N          0.49648       -0.00048        0.54416
| 12> H          0.26500       -0.88652       -1.37867
| 13> H         -1.19216       -0.00126        1.49873
| 14> H         -1.16627       -0.01555       -0.73412
| 15> *
| 16>
| 17> %maxcore 5000
| 18>
| 19> %pal
| 20> nprocs = 24
| 21> end
| 22>
| 23>
| 24>                          ****END OF INPUT****

CARTESIAN COORDINATES (ANGSTROEM)
---------------------------------
  H      1.521650    0.001050    0.544760
  C     -0.073220   -0.000020   -0.821320
  C     -0.091570    0.000170    1.713740
  H      0.240080    0.902610   -1.367290
  N      0.496480   -0.000480    0.544160
  H      0.265000   -0.886520   -1.378670
  H     -1.192160   -0.001260    1.498730
  H     -1.166270   -0.015550   -0.734120

 Total Charge           Charge          ....    0
 Multiplicity           Mult            ....    1
 Number of Electrons    NEL             ....   24
 Basis Dimension        Dim             ....  196

ORBITAL ENERGIES
----------------

  NO   OCC          E(Eh)            E(eV)
   0   2.0000     -14.566539      -396.3757
   1   2.0000     -10.395625      -282.8793
   2   2.0000     -10.355833      -281.7965
   3   2.0000      -1.080050       -29.3897
   4   2.0000      -0.851080       -23.1591
   5   2.0000      -0.740766       -20.1573
   6   2.0000      -0.605649       -16.4806
   7   2.0000      -0.568546       -15.4709
   8   2.0000      -0.543882       -14.7998
   9   2.0000      -0.505495       -13.7552
  10   2.0000      -0.428073       -11.6485
  11   2.0000      -0.306339        -8.3359
  12   0.0000       0.034090         0.9276
  13   0.0000       0.064809         1.7635
  14   0.0000       0.067456         1.8356
  15   0.0000       0.082274         2.2388
  16   0.0000       0.106624         2.9014

MULLIKEN ATOMIC CHARGES
-----------------------
   0 H :    0.092225
   1 C :   -0.499326
   2 C :   -0.167820
   3 H :    0.218714
   4 N :   -0.101058
   5 H :    0.218271
   6 H :    0.032342
   7 H :    0.206652
Sum of atomic charges:   -0.0000000

LOEWDIN ATOMIC CHARGES
----------------------
   0 H :   -0.061133
   1 C :    0.136506
   2 C :    0.073521
   3 H :   -0.003898
   4 N :   -0.020806
   5 H :   -0.003949
   6 H :   -0.112416
   7 H :   -0.007825

  Mayer bond orders larger than 0.100000
B(  0-H ,  4-N ) :   1.0666 B(  1-C ,  3-H ) :   0.9708 B(  1-C ,  4-N ) :   0.7839
B(  1-C ,  5-H ) :   0.9708 B(  1-C ,  7-H ) :   0.9489 B(  2-C ,  4-N ) :   1.5669
B(  2-C ,  6-H ) :   1.0390

FINAL SINGLE POINT ENERGY      -133.870084628225

DIPOLE MOMENT
-------------
                                X             Y             Z
Electronic contribution:      0.93051      -0.00076       1.66909
Nuclear contribution   :     -0.81448       0.00081      -3.18683
                        -----------------------------------------
Total Dipole Moment    :      0.11603       0.00005      -1.51774
                        -----------------------------------------
Magnitude (a.u.)       :      1.52217
Magnitude (Debye)      :      3.86905

Rotational constants in cm-1:     1.686117     0.341111     0.300010
Rotational constants in MHz : 50548.520534 10226.261318  8994.065933

                             ****ORCA TERMINATED NORMALLY****
TOTAL RUN TIME: 0 days 0 hours 0 minutes 7 seconds 428 msec
