                         Program Version 4.2.0 -  RELEASE  -
|  1> #
|  2> # 167_li wB97M-V/Def2-TZVPPD
|  3> #
|  4> ! wb97m-v def2-tzvppd def2/jk grid4 nofinalgrid
|  5>
|  6> *xyz 0 1
|  7> Li         0.00000        0.00000        0.80730
|  8> H          0.00000        0.00000       -0.80730
|  9> *
| 10>
| 11> %maxcore 5000
| 12>
| 13> %pal
| 14> nprocs = 24
| 15> end
| 16>
| 17>
| 18>                          ****END OF INPUT****

CARTESIAN COORDINATES (ANGSTROEM)
---------------------------------
  Li     0.000000    0.000000    0.807300
  H      0.000000    0.000000   -0.807300

 Total Charge           Charge          ....    0
 Multiplicity           Mult            ....    1
 Number of Electrons    NEL             ....    4
 Basis Dimension        Dim             ....   39

ORBITAL ENERGIES
----------------

  NO   OCC          E(Eh)            E(eV)
   0   2.0000      -2.130841       -57.9831
   1   2.0000      -0.284924        -7.7532
   2   0.0000      -0.023182        -0.6308
   3   0.0000       0.015764         0.4289
   4   0.0000       0.015764         0.4289
   5   0.0000       0.051648         1.4054
   6   0.0000       0.099812         2.7160

MULLIKEN ATOMIC CHARGES
-----------------------
   0 Li:    0.564749
   1 H :   -0.564749
Sum of atomic charges:    0.0000000

LOEWDIN ATOMIC CHARGES
----------------------
   0 Li:    0.285090
   1 H :   -0.285090

  Mayer bond orders larger than 0.100000
B(  0-Li,  1-H ) :   0.6812

FINAL SINGLE POINT ENERGY        -8.062463848858

DIPOLE MOMENT
-------------
                                X             Y             Z
Electronic contribution:      0.00000       0.00000       3.76919
Nuclear contribution   :      0.00000       0.00000      -1.50351
                        -----------------------------------------
Total Dipole Moment    :      0.00000       0.00000       2.26568
                        -----------------------------------------
Magnitude (a.u.)       :      2.26568
Magnitude (Debye)      :      5.75890

Rotational constants in cm-1:     0.000000     7.346778     7.346778
Rotational constants in MHz :     0.000000 220250.867747 220250.867747

                             ****ORCA TERMINATED NORMALLY****
TOTAL RUN TIME: 0 days 0 hours 0 minutes 3 seconds 420 msec
