                         Program Version 4.2.0 -  RELEASE  -
|  1> #
|  2> # 168_be wB97M-V/Def2-TZVPPD
|  3> #
|  4> ! wb97m-v def2-tzvppd def2/jk grid4 nofinalgrid
|  5>
|  6> *xyz 0 1
|  7> Be         0.00000        0.00000        0.00000
|  8> H          0.00000        0.00000       -1.34402
|  9> H          0.00000        0.00000        1.34402
| 10> *
| 11>
| 12> %maxcore 5000
| 13>
| 14> %pal
| 15> nprocs = 24
| 16> end
| 17>
| 18>
| 19>                          ****END OF INPUT****

CARTESIAN COORDINATES (ANGSTROEM)
---------------------------------
  Be     0.000000    0.000000    0.000000
  H      0.000000    0.000000   -1.344020
  H      0.000000    0.000000    1.344020

 Total Charge           Charge          ....    0
 Multiplicity           Mult            ....    1
 Number of Electrons    NEL             ....    6
 Basis Dimension        Dim             ....   56

ORBITAL ENERGIES
----------------

  NO   OCC          E(Eh)            E(eV)
   0   2.0000      -4.180731      -113.7635
   1   2.0000      -0.452575       -12.3152
   2   2.0000      -0.410894       -11.1810
   3   0.0000       0.010854         0.2954
   4   0.0000       0.010854         0.2954
   5   0.0000       0.040728         1.1083
   6   0.0000       0.046221         1.2577
   7   0.0000       0.091055         2.4777

MULLIKEN ATOMIC CHARGES
-----------------------
   0 Be:    0.083998
   1 H :   -0.041999
   2 H :   -0.041999
Sum of atomic charges:   -0.0000000

LOEWDIN ATOMIC CHARGES
----------------------
   0 Be:    0.351380
   1 H :   -0.175690
   2 H :   -0.175690

  Mayer bond orders larger than 0.100000
B(  0-Be,  1-H ) :   0.9772 B(  0-Be,  2-H ) :   0.9772 B(  1-H ,  2-H ) :   0.1070

FINAL SINGLE POINT ENERGY       -15.889449734800

DIPOLE MOMENT
-------------
                                X             Y             Z
Electronic contribution:     -0.00000       0.00000      -0.00000
Nuclear contribution   :      0.00000       0.00000       0.00000
                        -----------------------------------------
Total Dipole Moment    :     -0.00000       0.00000      -0.00000
                        -----------------------------------------
Magnitude (a.u.)       :      0.00000
Magnitude (Debye)      :      0.00000

Rotational constants in cm-1:     0.000000     4.629082     4.629082
Rotational constants in MHz :     0.000000 138776.398767 138776.398767

                             ****ORCA TERMINATED NORMALLY****
TOTAL RUN TIME: 0 days 0 hours 0 minutes 2 seconds 924 msec
