                         Program Version 4.2.0 -  RELEASE  -
|  1> #
|  2> # 169_b wB97M-V/Def2-TZVPPD
|  3> #
|  4> ! wb97m-v def2-tzvppd def2/jk grid4 nofinalgrid
|  5>
|  6> *xyz 0 1
|  7> B          0.00000        0.00000        0.00000
|  8> H          0.60006        1.03933        0.00000
|  9> H          0.60006       -1.03933        0.00000
| 10> H         -1.20012        0.00000        0.00000
| 11> *
| 12>
| 13> %maxcore 5000
| 14>
| 15> %pal
| 16> nprocs = 24
| 17> end
| 18>
| 19>
| 20>                          ****END OF INPUT****

CARTESIAN COORDINATES (ANGSTROEM)
---------------------------------
  B      0.000000    0.000000    0.000000
  H      0.600060    1.039330    0.000000
  H      0.600060   -1.039330    0.000000
  H     -1.200120    0.000000    0.000000

 Total Charge           Charge          ....    0
 Multiplicity           Mult            ....    1
 Number of Electrons    NEL             ....    8
 Basis Dimension        Dim             ....   88

ORBITAL ENERGIES
----------------

  NO   OCC          E(Eh)            E(eV)
   0   2.0000      -6.926125      -188.4694
   1   2.0000      -0.628713       -17.1082
   2   2.0000      -0.455130       -12.3847
   3   2.0000      -0.455127       -12.3846
   4   0.0000      -0.004470        -0.1216
   5   0.0000       0.026545         0.7223
   6   0.0000       0.105799         2.8789
   7   0.0000       0.105807         2.8791
   8   0.0000       0.120062         3.2670

MULLIKEN ATOMIC CHARGES
-----------------------
   0 B :   -0.348478
   1 H :    0.116133
   2 H :    0.116133
   3 H :    0.116212
Sum of atomic charges:   -0.0000000

LOEWDIN ATOMIC CHARGES
----------------------
   0 B :    0.239010
   1 H :   -0.079673
   2 H :   -0.079673
   3 H :   -0.079665

  Mayer bond orders larger than 0.100000
B(  0-B ,  1-H ) :   0.9810 B(  0-B ,  2-H ) :   0.9810 B(  0-B ,  3-H ) :   0.9811

FINAL SINGLE POINT ENERGY       -26.583637366966

DIPOLE MOMENT
-------------
                                X             Y             Z
Electronic contribution:      0.00003      -0.00000      -0.00000
Nuclear contribution   :      0.00000       0.00000       0.00000
                        -----------------------------------------
Total Dipole Moment    :      0.00003      -0.00000      -0.00000
                        -----------------------------------------
Magnitude (a.u.)       :      0.00003
Magnitude (Debye)      :      0.00007

Rotational constants in cm-1:     7.741042     7.740977     3.870505
Rotational constants in MHz : 232070.613118 232068.644801 116034.814478

                             ****ORCA TERMINATED NORMALLY****
TOTAL RUN TIME: 0 days 0 hours 0 minutes 3 seconds 467 msec
