                         Program Version 4.2.0 -  RELEASE  -
|  1> #
|  2> # 170_c wB97M-V/Def2-TZVPPD
|  3> #
|  4> ! wb97m-v def2-tzvppd def2/jk grid4 nofinalgrid
|  5>
|  6> *xyz 0 1
|  7> C          0.00000        0.00000        0.00000
|  8> H          0.63307        0.63307       -0.63307
|  9> H         -0.63307       -0.63307       -0.63307
| 10> H          0.63307       -0.63307        0.63307
| 11> H         -0.63307        0.63307        0.63307
| 12> *
| 13>
| 14> %maxcore 5000
| 15>
| 16> %pal
| 17> nprocs = 24
| 18> end
| 19>
| 20>
| 21>                          ****END OF INPUT****

CARTESIAN COORDINATES (ANGSTROEM)
---------------------------------
  C      0.000000    0.000000    0.000000
  H      0.633070    0.633070   -0.633070
  H     -0.633070   -0.633070   -0.633070
  H      0.633070   -0.633070    0.633070
  H     -0.633070    0.633070    0.633070

 Total Charge           Charge          ....    0
 Multiplicity           Mult            ....    1
 Number of Electrons    NEL             ....   10
 Basis Dimension        Dim             ....  105

ORBITAL ENERGIES
----------------

  NO   OCC          E(Eh)            E(eV)
   0   2.0000     -10.327479      -281.0250
   1   2.0000      -0.812776       -22.1168
   2   2.0000      -0.494449       -13.4546
   3   2.0000      -0.494449       -13.4546
   4   2.0000      -0.494449       -13.4546
   5   0.0000       0.044967         1.2236
   6   0.0000       0.132954         3.6179
   7   0.0000       0.132954         3.6179
   8   0.0000       0.132955         3.6179
   9   0.0000       0.160436         4.3657

MULLIKEN ATOMIC CHARGES
-----------------------
   0 C :   -0.726166
   1 H :    0.181542
   2 H :    0.181542
   3 H :    0.181541
   4 H :    0.181541
Sum of atomic charges:    0.0000000

LOEWDIN ATOMIC CHARGES
----------------------
   0 C :    0.251053
   1 H :   -0.062763
   2 H :   -0.062763
   3 H :   -0.062763
   4 H :   -0.062763

  Mayer bond orders larger than 0.100000
B(  0-C ,  1-H ) :   0.9579 B(  0-C ,  2-H ) :   0.9579 B(  0-C ,  3-H ) :   0.9579
B(  0-C ,  4-H ) :   0.9579

FINAL SINGLE POINT ENERGY       -40.492612578796

DIPOLE MOMENT
-------------
                                X             Y             Z
Electronic contribution:      0.00000      -0.00000      -0.00000
Nuclear contribution   :      0.00000       0.00000       0.00000
                        -----------------------------------------
Total Dipole Moment    :      0.00000      -0.00000      -0.00000
                        -----------------------------------------
Magnitude (a.u.)       :      0.00000
Magnitude (Debye)      :      0.00000

Rotational constants in cm-1:     5.216064     5.216064     5.216064
Rotational constants in MHz : 156373.665933 156373.665933 156373.665933

                             ****ORCA TERMINATED NORMALLY****
TOTAL RUN TIME: 0 days 0 hours 0 minutes 3 seconds 357 msec
