                         Program Version 4.2.0 -  RELEASE  -
|  1> #
|  2> # 171_n wB97M-V/Def2-TZVPPD
|  3> #
|  4> ! wb97m-v def2-tzvppd def2/jk grid4 nofinalgrid
|  5>
|  6> *xyz 0 1
|  7> N          0.00000        0.00000        0.55227
|  8> N          0.00000        0.00000       -0.55227
|  9> *
| 10>
| 11> %maxcore 5000
| 12>
| 13> %pal
| 14> nprocs = 24
| 15> end
| 16>
| 17>
| 18>                          ****END OF INPUT****

CARTESIAN COORDINATES (ANGSTROEM)
---------------------------------
  N      0.000000    0.000000    0.552270
  N      0.000000    0.000000   -0.552270

 Total Charge           Charge          ....    0
 Multiplicity           Mult            ....    1
 Number of Electrons    NEL             ....   14
 Basis Dimension        Dim             ....   74

ORBITAL ENERGIES
----------------

  NO   OCC          E(Eh)            E(eV)
   0   2.0000     -14.614727      -397.6869
   1   2.0000     -14.613129      -397.6435
   2   2.0000      -1.252771       -34.0896
   3   2.0000      -0.675740       -18.3878
   4   2.0000      -0.574196       -15.6247
   5   2.0000      -0.574196       -15.6247
   6   2.0000      -0.546817       -14.8797
   7   0.0000       0.065191         1.7739
   8   0.0000       0.065191         1.7739
   9   0.0000       0.092877         2.5273
  10   0.0000       0.121598         3.3088
  11   0.0000       0.275542         7.4979

MULLIKEN ATOMIC CHARGES
-----------------------
   0 N :    0.000001
   1 N :   -0.000001
Sum of atomic charges:    0.0000000

LOEWDIN ATOMIC CHARGES
----------------------
   0 N :    0.000000
   1 N :   -0.000000

  Mayer bond orders larger than 0.100000
B(  0-N ,  1-N ) :   2.5170

FINAL SINGLE POINT ENERGY      -109.551894457873

DIPOLE MOMENT
-------------
                                X             Y             Z
Electronic contribution:      0.00000       0.00000      -0.00000
Nuclear contribution   :      0.00000       0.00000       0.00000
                        -----------------------------------------
Total Dipole Moment    :      0.00000       0.00000      -0.00000
                        -----------------------------------------
Magnitude (a.u.)       :      0.00000
Magnitude (Debye)      :      0.00000

Rotational constants in cm-1:     0.000000     1.972963     1.972963
Rotational constants in MHz :     0.000000 59147.933340 59147.933340

                             ****ORCA TERMINATED NORMALLY****
TOTAL RUN TIME: 0 days 0 hours 0 minutes 3 seconds 269 msec
