                         Program Version 4.2.0 -  RELEASE  -
|  1> #
|  2> # 172_o wB97M-V/Def2-TZVPPD
|  3> #
|  4> ! wb97m-v def2-tzvppd def2/jk grid4 nofinalgrid
|  5>
|  6> *xyz 0 3
|  7> O          0.00000        0.00000        0.61122
|  8> O          0.00000        0.00000       -0.61122
|  9> *
| 10>
| 11> %maxcore 5000
| 12>
| 13> %pal
| 14> nprocs = 24
| 15> end
| 16>
| 17>
| 18>                          ****END OF INPUT****

CARTESIAN COORDINATES (ANGSTROEM)
---------------------------------
  O      0.000000    0.000000    0.611220
  O      0.000000    0.000000   -0.611220

 Total Charge           Charge          ....    0
 Multiplicity           Mult            ....    3
 Number of Electrons    NEL             ....   16
 Basis Dimension        Dim             ....   80

ORBITAL ENERGIES
----------------
                 SPIN UP ORBITALS
  NO   OCC          E(Eh)            E(eV)
   0   1.0000     -19.503748      -530.7240
   1   1.0000     -19.503671      -530.7219
   2   1.0000      -1.431627       -38.9565
   3   1.0000      -0.976653       -26.5761
   4   1.0000      -0.679759       -18.4972
   5   1.0000      -0.679759       -18.4972
   6   1.0000      -0.670356       -18.2413
   7   1.0000      -0.427775       -11.6404
   8   1.0000      -0.427775       -11.6404
   9   0.0000       0.060381         1.6431
  10   0.0000       0.087057         2.3689
  11   0.0000       0.094346         2.5673
  12   0.0000       0.094346         2.5673
  13   0.0000       0.137540         3.7426

                 SPIN DOWN ORBITALS
  NO   OCC          E(Eh)            E(eV)
   0   1.0000     -19.473618      -529.9041
   1   1.0000     -19.473334      -529.8964
   2   1.0000      -1.374423       -37.4000
   3   1.0000      -0.889433       -24.2027
   4   1.0000      -0.625335       -17.0162
   5   1.0000      -0.572837       -15.5877
   6   1.0000      -0.572837       -15.5877
   7   0.0000      -0.030990        -0.8433
   8   0.0000      -0.030990        -0.8433
   9   0.0000       0.049666         1.3515
  10   0.0000       0.080014         2.1773
  11   0.0000       0.092144         2.5074

MULLIKEN ATOMIC CHARGES AND SPIN POPULATIONS
--------------------------------------------
   0 O :   -0.000001    1.000000
   1 O :    0.000001    1.000000
Sum of atomic charges         :   -0.0000000

LOEWDIN ATOMIC CHARGES AND SPIN POPULATIONS
-------------------------------------------
   0 O :   -0.000000    1.000000
   1 O :    0.000000    1.000000

  Mayer bond orders larger than 0.100000
B(  0-O ,  1-O ) :   1.6204

FINAL SINGLE POINT ENERGY      -150.350708194122

DIPOLE MOMENT
-------------
                                X             Y             Z
Electronic contribution:     -0.00000       0.00000       0.00000
Nuclear contribution   :      0.00000       0.00000       0.00000
                        -----------------------------------------
Total Dipole Moment    :     -0.00000       0.00000       0.00000
                        -----------------------------------------
Magnitude (a.u.)       :      0.00000
Magnitude (Debye)      :      0.00000

Rotational constants in cm-1:     0.000000     1.410194     1.410194
Rotational constants in MHz :     0.000000 42276.561443 42276.561443

                             ****ORCA TERMINATED NORMALLY****
TOTAL RUN TIME: 0 days 0 hours 0 minutes 3 seconds 278 msec
