                         Program Version 4.2.0 -  RELEASE  -
|  1> #
|  2> # 173_f wB97M-V/Def2-TZVPPD
|  3> #
|  4> ! wb97m-v def2-tzvppd def2/jk grid4 nofinalgrid
|  5>
|  6> *xyz 0 1
|  7> F          0.00000        0.00000        0.71109
|  8> F          0.00000        0.00000       -0.71109
|  9> *
| 10>
| 11> %maxcore 5000
| 12>
| 13> %pal
| 14> nprocs = 24
| 15> end
| 16>
| 17>
| 18>                          ****END OF INPUT****

CARTESIAN COORDINATES (ANGSTROEM)
---------------------------------
  F      0.000000    0.000000    0.711090
  F      0.000000    0.000000   -0.711090

 Total Charge           Charge          ....    0
 Multiplicity           Mult            ....    1
 Number of Electrons    NEL             ....   18
 Basis Dimension        Dim             ....   80

ORBITAL ENERGIES
----------------

  NO   OCC          E(Eh)            E(eV)
   0   2.0000     -25.022007      -680.8834
   1   2.0000     -25.022004      -680.8834
   2   2.0000      -1.484771       -40.4027
   3   2.0000      -1.254099       -34.1258
   4   2.0000      -0.710949       -19.3459
   5   2.0000      -0.662319       -18.0226
   6   2.0000      -0.662319       -18.0226
   7   2.0000      -0.535365       -14.5680
   8   2.0000      -0.535365       -14.5680
   9   0.0000      -0.061883        -1.6839
  10   0.0000       0.086045         2.3414
  11   0.0000       0.113092         3.0774
  12   0.0000       0.117785         3.2051
  13   0.0000       0.117785         3.2051

MULLIKEN ATOMIC CHARGES
-----------------------
   0 F :    0.000000
   1 F :   -0.000000
Sum of atomic charges:   -0.0000000

LOEWDIN ATOMIC CHARGES
----------------------
   0 F :    0.000000
   1 F :   -0.000000

  Mayer bond orders larger than 0.100000
B(  0-F ,  1-F ) :   0.8557

FINAL SINGLE POINT ENERGY      -199.551244617531

DIPOLE MOMENT
-------------
                                X             Y             Z
Electronic contribution:      0.00000       0.00000       0.00000
Nuclear contribution   :      0.00000       0.00000       0.00000
                        -----------------------------------------
Total Dipole Moment    :      0.00000       0.00000       0.00000
                        -----------------------------------------
Magnitude (a.u.)       :      0.00000
Magnitude (Debye)      :      0.00000

Rotational constants in cm-1:     0.000000     0.877425     0.877425
Rotational constants in MHz :     0.000000 26304.532186 26304.532186

                             ****ORCA TERMINATED NORMALLY****
TOTAL RUN TIME: 0 days 0 hours 0 minutes 3 seconds 294 msec
