                         Program Version 4.2.0 -  RELEASE  -
|  1> #
|  2> # 176_al wB97M-V/Def2-TZVPPD
|  3> #
|  4> ! wb97m-v def2-tzvppd def2/jk grid4 nofinalgrid
|  5>
|  6> *xyz 0 1
|  7> Al         0.00000        0.00000        0.00000
|  8> H          0.80046       -1.38644        0.00000
|  9> H          0.80046        1.38644        0.00000
| 10> H         -1.60093        0.00000        0.00000
| 11> *
| 12>
| 13> %maxcore 5000
| 14>
| 15> %pal
| 16> nprocs = 24
| 17> end
| 18>
| 19>
| 20>                          ****END OF INPUT****

CARTESIAN COORDINATES (ANGSTROEM)
---------------------------------
  Al     0.000000    0.000000    0.000000
  H      0.800460   -1.386440    0.000000
  H      0.800460    1.386440    0.000000
  H     -1.600930    0.000000    0.000000

 Total Charge           Charge          ....    0
 Multiplicity           Mult            ....    1
 Number of Electrons    NEL             ....   16
 Basis Dimension        Dim             ....   99

ORBITAL ENERGIES
----------------

  NO   OCC          E(Eh)            E(eV)
   0   2.0000     -56.314625     -1532.3988
   1   2.0000      -4.299233      -116.9881
   2   2.0000      -2.818076       -76.6837
   3   2.0000      -2.809432       -76.4485
   4   2.0000      -2.809431       -76.4485
   5   2.0000      -0.528524       -14.3819
   6   2.0000      -0.399619       -10.8742
   7   2.0000      -0.399617       -10.8741
   8   0.0000      -0.008256        -0.2246
   9   0.0000       0.027686         0.7534
  10   0.0000       0.067217         1.8291
  11   0.0000       0.073745         2.0067
  12   0.0000       0.073755         2.0070

MULLIKEN ATOMIC CHARGES
-----------------------
   0 Al:    0.391161
   1 H :   -0.130397
   2 H :   -0.130397
   3 H :   -0.130368
Sum of atomic charges:   -0.0000000

LOEWDIN ATOMIC CHARGES
----------------------
   0 Al:    0.624589
   1 H :   -0.208197
   2 H :   -0.208197
   3 H :   -0.208195

  Mayer bond orders larger than 0.100000
B(  0-Al,  1-H ) :   0.9411 B(  0-Al,  2-H ) :   0.9411 B(  0-Al,  3-H ) :   0.9412

FINAL SINGLE POINT ENERGY      -244.170001751556

DIPOLE MOMENT
-------------
                                X             Y             Z
Electronic contribution:      0.00002      -0.00000      -0.00000
Nuclear contribution   :     -0.00001       0.00000       0.00000
                        -----------------------------------------
Total Dipole Moment    :      0.00002      -0.00000      -0.00000
                        -----------------------------------------
Magnitude (a.u.)       :      0.00002
Magnitude (Debye)      :      0.00004

Rotational constants in cm-1:     4.350150     4.350130     2.175070
Rotational constants in MHz : 130414.210579 130413.615544 65206.956531

                             ****ORCA TERMINATED NORMALLY****
TOTAL RUN TIME: 0 days 0 hours 0 minutes 3 seconds 64 msec
