                         Program Version 4.2.0 -  RELEASE  -
|  1> #
|  2> # 177_si wB97M-V/Def2-TZVPPD
|  3> #
|  4> ! wb97m-v def2-tzvppd def2/jk grid4 nofinalgrid
|  5>
|  6> *xyz 0 1
|  7> Si         0.00000        0.00000        0.00000
|  8> H         -0.86552        0.86552        0.86552
|  9> H          0.86552       -0.86552        0.86552
| 10> H         -0.86552       -0.86552       -0.86552
| 11> H          0.86552        0.86552       -0.86552
| 12> *
| 13>
| 14> %maxcore 5000
| 15>
| 16> %pal
| 17> nprocs = 24
| 18> end
| 19>
| 20>
| 21>                          ****END OF INPUT****

CARTESIAN COORDINATES (ANGSTROEM)
---------------------------------
  Si     0.000000    0.000000    0.000000
  H     -0.865520    0.865520    0.865520
  H      0.865520   -0.865520    0.865520
  H     -0.865520   -0.865520   -0.865520
  H      0.865520    0.865520   -0.865520

 Total Charge           Charge          ....    0
 Multiplicity           Mult            ....    1
 Number of Electrons    NEL             ....   18
 Basis Dimension        Dim             ....  116

ORBITAL ENERGIES
----------------

  NO   OCC          E(Eh)            E(eV)
   0   2.0000     -66.410133     -1807.1116
   1   2.0000      -5.446352      -148.2028
   2   2.0000      -3.759844      -102.3106
   3   2.0000      -3.759844      -102.3106
   4   2.0000      -3.759844      -102.3106
   5   2.0000      -0.661747       -18.0071
   6   2.0000      -0.447993       -12.1905
   7   2.0000      -0.447993       -12.1905
   8   2.0000      -0.447993       -12.1905
   9   0.0000       0.041449         1.1279
  10   0.0000       0.080550         2.1919
  11   0.0000       0.080550         2.1919
  12   0.0000       0.080550         2.1919
  13   0.0000       0.105902         2.8817

MULLIKEN ATOMIC CHARGES
-----------------------
   0 Si:    0.124404
   1 H :   -0.031100
   2 H :   -0.031101
   3 H :   -0.031101
   4 H :   -0.031101
Sum of atomic charges:   -0.0000000

LOEWDIN ATOMIC CHARGES
----------------------
   0 Si:    0.651509
   1 H :   -0.162877
   2 H :   -0.162877
   3 H :   -0.162877
   4 H :   -0.162877

  Mayer bond orders larger than 0.100000
B(  0-Si,  1-H ) :   0.9787 B(  0-Si,  2-H ) :   0.9787 B(  0-Si,  3-H ) :   0.9787
B(  0-Si,  4-H ) :   0.9787

FINAL SINGLE POINT ENERGY      -291.845617748517

DIPOLE MOMENT
-------------
                                X             Y             Z
Electronic contribution:     -0.00000       0.00000      -0.00000
Nuclear contribution   :      0.00000       0.00000       0.00000
                        -----------------------------------------
Total Dipole Moment    :     -0.00000       0.00000      -0.00000
                        -----------------------------------------
Magnitude (a.u.)       :      0.00000
Magnitude (Debye)      :      0.00000

Rotational constants in cm-1:     2.790565     2.790565     2.790565
Rotational constants in MHz : 83659.038574 83659.038574 83659.038574

                             ****ORCA TERMINATED NORMALLY****
TOTAL RUN TIME: 0 days 0 hours 0 minutes 3 seconds 733 msec
