                         Program Version 4.2.0 -  RELEASE  -
|  1> #
|  2> # 178_p wB97M-V/Def2-TZVPPD
|  3> #
|  4> ! wb97m-v def2-tzvppd def2/jk grid4 nofinalgrid
|  5>
|  6> *xyz 0 1
|  7> P          0.00000        0.00000        0.95949
|  8> P          0.00000        0.00000       -0.95949
|  9> *
| 10>
| 11> %maxcore 5000
| 12>
| 13> %pal
| 14> nprocs = 24
| 15> end
| 16>
| 17>
| 18>                          ****END OF INPUT****

CARTESIAN COORDINATES (ANGSTROEM)
---------------------------------
  P      0.000000    0.000000    0.959490
  P      0.000000    0.000000   -0.959490

 Total Charge           Charge          ....    0
 Multiplicity           Mult            ....    1
 Number of Electrons    NEL             ....   30
 Basis Dimension        Dim             ....   96

ORBITAL ENERGIES
----------------

  NO   OCC          E(Eh)            E(eV)
   0   2.0000     -77.398264     -2106.1138
   1   2.0000     -77.398241     -2106.1132
   2   2.0000      -6.746302      -183.5762
   3   2.0000      -6.745921      -183.5659
   4   2.0000      -4.858427      -132.2045
   5   2.0000      -4.858427      -132.2045
   6   2.0000      -4.858279      -132.2005
   7   2.0000      -4.858279      -132.2005
   8   2.0000      -4.855201      -132.1167
   9   2.0000      -4.853459      -132.0693
  10   2.0000      -0.793720       -21.5982
  11   2.0000      -0.571291       -15.5456
  12   2.0000      -0.386028       -10.5044
  13   2.0000      -0.368233       -10.0201
  14   2.0000      -0.368233       -10.0201
  15   0.0000      -0.025505        -0.6940
  16   0.0000      -0.025505        -0.6940
  17   0.0000       0.061043         1.6611
  18   0.0000       0.076113         2.0711
  19   0.0000       0.141596         3.8530

MULLIKEN ATOMIC CHARGES
-----------------------
   0 P :    0.000001
   1 P :   -0.000001
Sum of atomic charges:   -0.0000000

LOEWDIN ATOMIC CHARGES
----------------------
   0 P :    0.000000
   1 P :   -0.000000

  Mayer bond orders larger than 0.100000
B(  0-P ,  1-P ) :   2.8047

FINAL SINGLE POINT ENERGY      -682.672586831384

DIPOLE MOMENT
-------------
                                X             Y             Z
Electronic contribution:      0.00000      -0.00000       0.00000
Nuclear contribution   :      0.00000       0.00000       0.00000
                        -----------------------------------------
Total Dipole Moment    :      0.00000      -0.00000       0.00000
                        -----------------------------------------
Magnitude (a.u.)       :      0.00000
Magnitude (Debye)      :      0.00000

Rotational constants in cm-1:     0.000000     0.295589     0.295589
Rotational constants in MHz :     0.000000  8861.544214  8861.544214

                             ****ORCA TERMINATED NORMALLY****
TOTAL RUN TIME: 0 days 0 hours 0 minutes 3 seconds 284 msec
