                         Program Version 4.2.0 -  RELEASE  -
|  1> #
|  2> # 179_s wB97M-V/Def2-TZVPPD
|  3> #
|  4> ! wb97m-v def2-tzvppd def2/jk grid4 nofinalgrid
|  5>
|  6> *xyz 0 3
|  7> S          0.00000        0.00000        0.96937
|  8> S          0.00000        0.00000       -0.96937
|  9> *
| 10>
| 11> %maxcore 5000
| 12>
| 13> %pal
| 14> nprocs = 24
| 15> end
| 16>
| 17>
| 18>                          ****END OF INPUT****

CARTESIAN COORDINATES (ANGSTROEM)
---------------------------------
  S      0.000000    0.000000    0.969370
  S      0.000000    0.000000   -0.969370

 Total Charge           Charge          ....    0
 Multiplicity           Mult            ....    3
 Number of Electrons    NEL             ....   32
 Basis Dimension        Dim             ....  102

ORBITAL ENERGIES
----------------
                 SPIN UP ORBITALS
  NO   OCC          E(Eh)            E(eV)
   0   1.0000     -89.250320     -2428.6247
   1   1.0000     -89.250310     -2428.6244
   2   1.0000      -8.174795      -222.4475
   3   1.0000      -8.174697      -222.4448
   4   1.0000      -6.084197      -165.5594
   5   1.0000      -6.084197      -165.5594
   6   1.0000      -6.084177      -165.5589
   7   1.0000      -6.084177      -165.5589
   8   1.0000      -6.082387      -165.5102
   9   1.0000      -6.081844      -165.4954
  10   1.0000      -0.953342       -25.9418
  11   1.0000      -0.755184       -20.5496
  12   1.0000      -0.496726       -13.5166
  13   1.0000      -0.477293       -12.9878
  14   1.0000      -0.477293       -12.9878
  15   1.0000      -0.341852        -9.3023
  16   1.0000      -0.341852        -9.3023
  17   0.0000       0.019448         0.5292
  18   0.0000       0.054162         1.4738
  19   0.0000       0.054162         1.4738
  20   0.0000       0.057822         1.5734
  21   0.0000       0.076950         2.0939

                 SPIN DOWN ORBITALS
  NO   OCC          E(Eh)            E(eV)
   0   1.0000     -89.243266     -2428.4327
   1   1.0000     -89.243258     -2428.4325
   2   1.0000      -8.168704      -222.2817
   3   1.0000      -8.168531      -222.2770
   4   1.0000      -6.078262      -165.3979
   5   1.0000      -6.077716      -165.3831
   6   1.0000      -6.070283      -165.1808
   7   1.0000      -6.070283      -165.1808
   8   1.0000      -6.070246      -165.1798
   9   1.0000      -6.070246      -165.1798
  10   1.0000      -0.926544       -25.2125
  11   1.0000      -0.699453       -19.0331
  12   1.0000      -0.471585       -12.8325
  13   1.0000      -0.420052       -11.4302
  14   1.0000      -0.420052       -11.4302
  15   0.0000      -0.073597        -2.0027
  16   0.0000      -0.073597        -2.0027
  17   0.0000       0.009115         0.2480
  18   0.0000       0.043401         1.1810
  19   0.0000       0.043401         1.1810

MULLIKEN ATOMIC CHARGES AND SPIN POPULATIONS
--------------------------------------------
   0 S :    0.000000    1.000000
   1 S :   -0.000000    1.000000
Sum of atomic charges         :   -0.0000000

LOEWDIN ATOMIC CHARGES AND SPIN POPULATIONS
-------------------------------------------
   0 S :    0.000000    1.000000
   1 S :   -0.000000    1.000000

  Mayer bond orders larger than 0.100000
B(  0-S ,  1-S ) :   1.9874

FINAL SINGLE POINT ENERGY      -796.348722328340

DIPOLE MOMENT
-------------
                                X             Y             Z
Electronic contribution:      0.00000      -0.00000       0.00000
Nuclear contribution   :      0.00000       0.00000       0.00000
                        -----------------------------------------
Total Dipole Moment    :      0.00000      -0.00000       0.00000
                        -----------------------------------------
Magnitude (a.u.)       :      0.00000
Magnitude (Debye)      :      0.00000

Rotational constants in cm-1:     0.000000     0.279785     0.279785
Rotational constants in MHz :     0.000000  8387.739618  8387.739618

                             ****ORCA TERMINATED NORMALLY****
TOTAL RUN TIME: 0 days 0 hours 0 minutes 3 seconds 894 msec
