                         Program Version 4.2.0 -  RELEASE  -
|  1> #
|  2> # 180_cl wB97M-V/Def2-TZVPPD
|  3> #
|  4> ! wb97m-v def2-tzvppd def2/jk grid4 nofinalgrid
|  5>
|  6> *xyz 0 1
|  7> Cl         0.00000        0.00000        1.02399
|  8> Cl         0.00000        0.00000       -1.02399
|  9> *
| 10>
| 11> %maxcore 5000
| 12>
| 13> %pal
| 14> nprocs = 24
| 15> end
| 16>
| 17>
| 18>                          ****END OF INPUT****

CARTESIAN COORDINATES (ANGSTROEM)
---------------------------------
  Cl     0.000000    0.000000    1.023990
  Cl     0.000000    0.000000   -1.023990

 Total Charge           Charge          ....    0
 Multiplicity           Mult            ....    1
 Number of Electrons    NEL             ....   34
 Basis Dimension        Dim             ....  102

ORBITAL ENERGIES
----------------

  NO   OCC          E(Eh)            E(eV)
   0   2.0000    -101.934862     -2773.7886
   1   2.0000    -101.934854     -2773.7884
   2   2.0000      -9.703713      -264.0514
   3   2.0000      -9.703693      -264.0509
   4   2.0000      -7.411369      -201.6736
   5   2.0000      -7.411285      -201.6713
   6   2.0000      -7.398698      -201.3288
   7   2.0000      -7.398698      -201.3288
   8   2.0000      -7.398691      -201.3286
   9   2.0000      -7.398691      -201.3286
  10   2.0000      -1.049468       -28.5575
  11   2.0000      -0.897882       -24.4326
  12   2.0000      -0.562203       -15.2983
  13   2.0000      -0.512895       -13.9566
  14   2.0000      -0.512895       -13.9566
  15   2.0000      -0.412403       -11.2220
  16   2.0000      -0.412403       -11.2220
  17   0.0000      -0.055163        -1.5011
  18   0.0000       0.049994         1.3604
  19   0.0000       0.067344         1.8325
  20   0.0000       0.067344         1.8325
  21   0.0000       0.071380         1.9424

MULLIKEN ATOMIC CHARGES
-----------------------
   0 Cl:    0.000000
   1 Cl:   -0.000000
Sum of atomic charges:   -0.0000000

LOEWDIN ATOMIC CHARGES
----------------------
   0 Cl:    0.000000
   1 Cl:   -0.000000

  Mayer bond orders larger than 0.100000
B(  0-Cl,  1-Cl) :   1.0166

FINAL SINGLE POINT ENERGY      -920.347272275206

DIPOLE MOMENT
-------------
                                X             Y             Z
Electronic contribution:     -0.00000      -0.00000      -0.00000
Nuclear contribution   :      0.00000       0.00000       0.00000
                        -----------------------------------------
Total Dipole Moment    :     -0.00000      -0.00000      -0.00000
                        -----------------------------------------
Magnitude (a.u.)       :      0.00000
Magnitude (Debye)      :      0.00000

Rotational constants in cm-1:     0.000000     0.226737     0.226737
Rotational constants in MHz :     0.000000  6797.405627  6797.405627

                             ****ORCA TERMINATED NORMALLY****
TOTAL RUN TIME: 0 days 0 hours 0 minutes 3 seconds 155 msec
